# oxDNA Generated Gel - Generated on Mon Dec 21 13:34:27 2020

42 atoms
43 bonds

2 atom types
1 bond types

-20.0 20.0 xlo xhi
-20.0 20.0 ylo yhi
-20.0 20.0 zlo zhi

Masses

1 1.0
2 1.0

Atoms

1 1 1 1.7705432857864298 9.78977293187672 12.0186375717004
2 1 1 14.941557314216 10.8014294224969 8.86314703674052
3 1 2 16.9711212983309 11.573701225306099 12.0099299743806
4 1 2 12.9095520124858 6.32976762469638 11.853931306863
5 1 1 15.5199762625205 12.437624363475 10.3336437852745
6 1 2 16.7202062293495 10.807776657009402 14.060468829574
7 1 1 17.834801570398604 12.015714898903502 12.519501759589698
8 1 1 15.2437431764714 11.9321990622558 8.74233490814467
9 1 1 12.9056452812094 6.89384126570138 10.9027807057058
10 1 1 12.9070261310741 7.441074132551121 9.76733360932786
11 1 1 5.1399555482362596 11.156174113238801 14.8713032134208
12 1 1 19.033888853975302 11.4381793885904 12.3415430416867
13 1 1 17.8609652345172 11.07262285392 14.1669487690234
14 1 1 16.0622311867781 12.270058960000698 11.471246123174
15 1 1 15.8300876286768 12.741638704160199 14.2211116307338
16 1 1 15.224294451909199 11.156936362404402 9.95071708243623
17 1 1 2.69446427410191 9.041053998732789 11.708077386560099
18 1 1 14.9666873881445 12.7297631161005 9.468306346698249
19 1 1 0.567911696041357 10.026906784532802 12.282139061531598
20 1 1 19.7828991746132 7.805773578689751 10.2264606128603
21 1 1 4.172006155021831 10.7178060292245 15.111682665838
22 1 1 12.8332505587114 7.574421494076929 11.959850023600499
23 1 1 18.739358823259 10.4206075843669 10.978144812713301
24 1 1 16.428536835837 11.7349335663775 14.7449274212539
25 1 1 17.9373599658332 11.3311718279932 11.482367597263801
26 1 1 16.276076833712498 11.912271694256999 9.66764719506495
27 1 1 12.361718706516 8.58488416870502 12.3478384590257
28 1 1 13.7644212587002 8.950669007862631 8.58172128740549
29 1 1 19.8293755798741 10.1078192718887 10.585678079759699
30 1 1 13.8789654933686 10.083717830745199 8.727054604400411
31 1 1 2.4470916094255 9.76311258838206 13.937056316923401
32 1 1 19.9136979462891 8.97650939997844 10.087679817444801
33 1 1 3.8582565600794 8.59367143314268 11.633889837223599
34 1 1 13.6563111248906 7.94143398565737 9.096817563021471
35 1 1 16.7523276871521 10.706592787353 12.901478348983801
36 1 1 15.562401840344 14.386459700276502 12.7983601753477
37 1 1 3.17399127197519 10.3046480760885 14.5340017796591
38 1 1 16.732976088807302 11.0628006437776 8.99126454326308
39 1 1 15.844421075362801 13.3512796162708 13.221955938775402
40 1 1 1.78806793944069 10.1074113767112 13.091883570369802
41 1 1 19.5056935263773 10.4734705275167 12.430309546983098
42 1 1 15.863308527549698 10.330752843718901 8.48457509956835


Bonds

1 1 10 34
2 1 15 24
3 1 2 42
4 1 1 40
5 1 3 7
6 1 4 9
7 1 6 24
8 1 15 39
9 1 20 32
10 1 29 32
11 1 3 25
12 1 5 16
13 1 23 25
14 1 8 18
15 1 21 37
16 1 28 30
17 1 2 8
18 1 17 33
19 1 26 38
20 1 6 35
21 1 5 18
22 1 31 37
23 1 9 10
24 1 31 40
25 1 36 39
26 1 2 16
27 1 1 17
28 1 6 13
29 1 7 12
30 1 19 41
31 1 3 14
32 1 38 42
33 1 22 27
34 1 5 14
35 1 4 22
36 1 23 29
37 1 3 35
38 1 5 26
39 1 12 41
40 1 11 21
41 1 28 34
42 1 1 19
43 1 2 30
