LAMMPS data file via write_data, version 22 Oct 2020, timestep = 100000

100 atoms
2 atom types
117 bonds
1 bond types

-20.0 20.0 xlo xhi
-20.0 20.0 ylo yhi
-20.0 20.0 zlo zhi

Masses

1 1
2 1

PairIJ Coeffs # lj/cut

1 1 1 1 2
1 2 1 1 2
2 2 1 1 2

Bond Coeffs # harmonic

1 2.5 1

Atoms # bond

14 1 1 1.6704110224873747 0.9435229021163862 -1.4263215220608014 0 0 0
83 1 1 1.1591362966584178 1.7196521318523887 -1.4812669469095607 0 0 0
38 1 1 2.6419755607707778 -0.2630620739524013 -1.053776230580611 0 0 0
49 1 1 0.7026268702637949 2.325237750924994 -0.6443353969291554 0 0 0
55 1 1 -1.0621439659329581 2.2293305174744797 -0.8982639196906245 0 0 0
20 1 2 0.945764947280529 1.8325947706241583 -0.6755812666345353 0 0 0
22 1 1 1.5479900094219479 -1.9758834363336248 1.9115858569798967 0 0 0
13 1 2 1.493396863984163 -3.698399823949234 0.1819027537485546 0 0 0
37 1 1 1.9114651505651938 0.11472707481314603 0.1048790507010927 0 0 0
56 1 1 1.846483765548525 -0.5147521654834355 2.3567419159074077 0 0 0
51 1 1 0.6767131276501908 -3.0348733872742515 -0.4377348476599323 0 0 0
93 1 1 2.3942182846004876 0.5290052753073113 -2.0005621675858745 0 0 0
78 1 1 1.6025774382431368 0.025299867572317905 -0.9841763037520714 0 0 0
44 1 1 1.1335449517159555 0.012848773967183758 -2.2346476938968305 0 0 0
8 1 2 2.7970115393878303 0.7797961838520696 -0.1368310713747863 0 0 0
96 1 1 1.663565881130991 0.5953510381545799 1.576292750341952 0 0 0
60 1 1 1.0639740646281337 -0.988481715447854 -0.057310478417853854 0 0 0
57 1 1 1.2343655990529687 -0.8113576918000598 -0.08438303451551459 0 0 0
74 1 1 1.6159593842889233 1.5299152345461189 0.2721358525386966 0 0 0
25 1 1 -0.9002915740796444 -0.8857810983380566 -0.87892101232189 0 0 0
30 1 1 -0.7474064651191836 -0.825152100139301 -0.734337717026183 0 0 0
71 1 1 0.6526190024611009 -0.4259193635195099 -0.8961540394273627 0 0 0
90 1 1 0.5629437026413769 -0.4217473513258795 -1.0081049357272316 0 0 0
63 1 1 0.6822875549295561 0.6343360825113199 -1.0354028816425704 0 0 0
31 1 1 0.7039508826721826 0.7444494026426417 -1.0337946398984028 0 0 0
23 1 1 -2.4893943622936345 0.3028167151496842 -0.8308482777298015 0 0 0
79 1 1 -1.9077937910014433 1.425271648427555 -1.0112442086404059 0 0 0
21 1 2 -1.603341963764066 0.7100254016039751 -2.049019001866434 0 0 0
15 1 2 0.11049761465104116 0.49936455615097175 -2.2365693051928663 0 0 0
65 1 1 1.931035423780925 1.5950483496281764 -2.250699300824124 0 0 0
76 1 1 -0.8102161148538426 1.7055104247415769 -2.1609416924738647 0 0 0
3 1 2 0.056619220579903116 1.4134380759553284 -0.3005024835910115 0 0 0
53 1 1 -0.023610726045528146 0.817904801239467 -2.207034129506691 0 0 0
52 1 1 0.15176130564383192 1.2402823709502646 -0.13749824667920701 0 0 0
98 1 1 0.46609795138296245 -1.3223559498309507 0.6643807068678009 0 0 0
67 1 1 0.2757964459568576 -2.761442322020336 0.718615539470865 0 0 0
62 1 1 0.615275749275393 -1.2932651470320116 0.8126286439435103 0 0 0
16 1 2 0.7848031053247009 -0.22450570624516722 1.1366212501458313 0 0 0
86 1 1 2.278047286752755 0.9284892958921465 1.1018345334528803 0 0 0
58 1 1 -0.5994717640257033 -2.4273122999301866 0.050757344518647 0 0 0
91 1 1 0.5151149724957009 -2.2001373754555287 -1.4926168260296728 0 0 0
50 1 1 -0.48668220916905797 -2.6898930257380824 -0.47825361245273296 0 0 0
54 1 1 0.10621102268972502 -1.4923111902271955 -0.7627039584990105 0 0 0
48 1 1 0.48746493901106874 -1.900090575285218 -0.1429659200065379 0 0 0
7 1 2 1.7649768217328419 0.2228348316196692 0.6031288411137872 0 0 0
94 1 1 0.8763828168863944 -0.2037039663700814 0.9126925349942375 0 0 0
46 1 1 0.36402060053413 -0.8899359036662989 -1.831226269721847 0 0 0
89 1 1 -0.675082339797063 -0.2640088910046813 -1.8433460193261482 0 0 0
73 1 1 -0.3327136688322196 0.22785320205319984 -0.8083697287449493 0 0 0
32 1 1 0.041304053896041554 -0.6285299173706471 -0.05241705357902377 0 0 0
1 1 1 0.05109406781435056 -0.6960947184556785 0.0007650787910067737 0 0 0
81 1 1 -0.3175944500468606 1.5892835609427656 0.922469712729748 0 0 0
6 1 2 0.7623924855135737 1.0967260104286187 0.8815858989492935 0 0 0
19 1 2 0.7658863236407808 0.17226565246462125 -0.12172318044569239 0 0 0
64 1 1 0.8260469266613952 0.17300845094140613 -0.11070765152626626 0 0 0
27 1 1 1.5568110314626769 1.0260984584977844 -0.22499429700427376 0 0 0
43 1 1 -0.894398849123758 1.0487486949016482 -1.099672329628941 0 0 0
95 1 1 -1.590143628277408 0.3770398771402562 -0.8124159831987188 0 0 0
87 1 1 -1.5276760601320214 0.0907610640083886 -1.0260626883351163 0 0 0
82 1 1 -0.24517706843264098 0.2433495541891704 -0.726557913524743 0 0 0
5 1 2 -0.7153141401078977 0.3043309208850896 -1.7069667002180253 0 0 0
59 1 1 -0.24230283008540365 1.4824079838507884 0.8679285554881396 0 0 0
39 1 1 -2.2541892435761395 -0.5992799067736991 -0.16419822922915797 0 0 0
66 1 1 -2.006867412067041 -0.54962957106781 -0.24602522657207707 0 0 0
9 1 2 -0.3989000662325218 1.1478632375055027 -1.1365913523018862 0 0 0
75 1 1 -0.5945848324577253 1.6302201083847463 1.925938951120273 0 0 0
97 1 1 -0.1603586131400536 1.6856326930372516 -1.3338274552944207 0 0 0
45 1 1 -1.8423851344063558 1.9345862560587326 1.0540997090283706 0 0 0
68 1 1 -0.305194139950337 2.346150313490086 -0.20911060004474377 0 0 0
69 1 1 -0.45262739316666983 -1.85292991479218 1.3559844199495426 0 0 0
88 1 1 1.8275820523495112 -0.7706833413798693 0.8178371246466307 0 0 0
18 1 2 -1.4014959986399398 -1.7626484530617514 0.9170419081558215 0 0 0
11 1 1 -0.7391300948861455 -1.448667740746411 0.1572801861419683 0 0 0
92 1 1 -1.826459438045512 -2.6338869927503445 0.6205356431165023 0 0 0
28 1 1 -0.49697683016499294 -1.9780721982926754 1.3153845294197513 0 0 0
34 1 1 -1.3344446973759763 -3.05320279500971 2.924204513437869 0 0 0
80 1 1 0.2621678694122938 -1.0482035915101788 1.7510603611369047 0 0 0
40 1 1 -1.8861657417984818 -0.11055759490554541 1.0158676938661164 0 0 0
99 1 1 -0.6316815495006978 -1.4197532225888243 0.2971913455648175 0 0 0
12 1 2 0.3745189951862497 -0.483203145851426 2.016484384455974 0 0 0
61 1 1 0.9310862913734366 0.8887352940064372 0.76000288119991 0 0 0
26 1 1 -0.6592689607056125 0.13485708475396235 1.8175133745679986 0 0 0
85 1 1 0.978443512813165 2.056831279182804 0.8419361657725916 0 0 0
33 1 1 0.5531201336644268 0.4421825153820918 2.0565762022493024 0 0 0
70 1 1 -0.8934911606555166 0.904392508734061 -0.10042723366031292 0 0 0
77 1 1 -1.8641982544945068 0.6928234897431549 0.2259442632563005 0 0 0
17 1 2 -1.3138261244710332 0.7552306203163335 0.8209364879440071 0 0 0
29 1 1 -1.0170847186467966 1.2046781411281489 -0.0916745383955603 0 0 0
84 1 1 -0.09967627784681067 0.45518005757012575 0.49304684051424075 0 0 0
72 1 1 -1.1698729125400011 -0.19467898082740268 0.23270165535223541 0 0 0
4 1 2 -1.1044207234571657 -0.23901877479406558 0.03812042535409704 0 0 0
100 1 1 -0.12256243297797845 0.4271904311722288 0.6755430417814335 0 0 0
47 1 1 -2.1395902741087487 1.176495825262407 1.9665165721052602 0 0 0
10 1 2 -1.2545262395710877 1.6829741698435925 2.0160463953638965 0 0 0
35 1 1 -1.485089286460293 2.100472960977735 -0.025347255530960934 0 0 0
41 1 1 -1.8760305275240872 -1.4948879013022622 -0.5518887179286961 0 0 0
24 1 1 -0.3740447108563344 -0.5318494911327479 1.0266755032548869 0 0 0
36 1 1 -1.5703947726428504 -1.3327066060309016 0.9410691005474269 0 0 0
42 1 1 0.42610113933282945 0.5887457353946494 1.8088197142527458 0 0 0
2 1 2 -0.3973475267147707 -0.6213122109522186 1.0190472795154828 0 0 0

Velocities

14 0.055048319348426064 1.1932689957824913 0.09946189377475464
83 1.7327896108032792 0.5824784986882902 -1.7724757688364927
38 -0.17723426770318026 1.5320428601899907 -0.21611461447827082
49 0.47967960359809236 1.0467656832214027 0.09394082254246251
55 2.045372347945053 -1.0202486732846865 0.713187427134486
20 -0.1263480350051385 -0.5482847863096613 0.9332770294255827
22 -0.023324150408985896 0.9113295045376877 0.0444600528079924
13 0.3483285723752139 0.1581748738954588 0.4998728646200721
37 2.4495520697506317 -0.09269128959911171 0.747293749090243
56 0.7347621808385395 0.46466971985414757 0.058635268904973614
51 2.0859671146140597 -1.9076130984790551 0.25523110169468377
93 0.49173430164253906 0.7619422341237237 0.26423281557042216
78 1.1595027022580258 0.3044576392944215 -0.11621052359999172
44 1.0401103159120875 0.930394657410372 0.27117453003215686
8 1.8217155481390563 -1.1028456377725535 -0.1743864095542444
96 -0.95784953514724 -1.3464222848388656 -1.1042032307123872
60 1.5353877680754364 1.3349639901581625 0.017563356068417274
57 0.09951143473175372 0.29316682252617593 -1.4738851379619462
74 -1.2857636581287422 -0.6668067891676986 -0.2736929794368815
25 0.15038490751921305 1.5243477273068766 0.7230966682623864
30 1.1343409657420087 0.6977254346818377 0.21628929237866623
71 0.48181759994999684 0.29728993250608216 0.9473508035684182
90 0.453572065692869 -0.7572283612795283 0.9215211661711469
63 -1.6907858217609197 -1.1032532005418467 -1.684703005859495
31 -0.6017834559548484 1.330740938145961 0.08345066119268871
23 2.2814605046224696 0.24620350023170778 -0.5950333254788371
79 0.026666347547592707 2.202517967950657 0.6915798050437577
21 -0.036580292393333366 -0.04693586715718057 0.18681286150574772
15 -0.43647352400668765 -0.8116901242130917 1.5852624017311105
65 -0.26662480078940415 2.463013653245216 -1.45135338363931
76 -0.3982432743736892 -1.269099962985149 0.22404592199861692
3 -1.1292218838064827 0.7462451211200106 0.26748633022138557
53 -0.7538586201276202 0.32378660257030456 -0.07751667823931026
52 0.05746687996608155 1.1015681794485086 -0.561245788969859
98 0.08254645775047756 0.5862358516902686 -0.8570968402605551
67 0.124100269060705 1.044825497361286 -0.7723456188354652
62 -0.748164497236533 0.6695237155743627 -1.3397787121980667
16 1.7661766197226003 0.1702628290134405 -0.7125133188222961
86 0.06896263147068771 0.44793831321723626 -0.0746137110642466
58 0.14817425714479132 -0.8009632615928186 2.1988356461723204
91 1.8251395741905778 -0.743331574221712 1.2754306916325626
50 -0.9556535019903026 0.6753183260511176 1.2649288977673363
54 1.162892718512688 -0.22592003138916272 2.2059915697020225
48 -1.199944878984823 1.910711711697156 -1.211074420971788
7 -0.16502325999922363 -1.2895292787239807 -0.4537399515113378
94 -0.8215529812080905 0.14922846487670643 0.1726592094434804
46 -0.21786786859417434 -0.6463985381729448 0.9410007118622759
89 1.384738378342213 0.30683711901252675 0.18759607677844048
73 0.47827514352857825 -0.5293076715026324 0.5774490664017969
32 -0.827245034513211 -0.9526663526636419 0.5705182945769648
1 -1.1392389471334978 0.8984191980767139 2.200635702282424
81 -0.00948942934512656 -0.7098425584575028 -0.2473501938621789
6 -0.2382312087201578 0.22567849514448832 -0.014604682638416043
19 -1.9911555766942615 0.403597145531984 0.3361495422700675
64 1.4349206352346748 -1.0293003112417194 0.22502318675467692
27 -0.6661711825890494 -1.285216161067443 -0.27157842653285563
43 0.7240042233181765 1.8714730063704237 0.31885989824672856
95 -1.5123639206503732 -0.9854272269693152 -0.7825236630723778
87 -0.568814393016781 -0.4342019111298944 1.5365689747001727
82 -0.7234318805639675 -0.007694416430654022 -0.936957955955445
5 1.3761739280781786 2.554367779391087 -0.21898229995973073
59 2.164608847003904 0.877793114716563 0.13034406150513445
39 -0.3208240321031598 -0.6111129910856566 -0.5543051193676334
66 -0.29142155835505656 -0.7500104821661306 -1.142863742315582
9 -0.06556277287998571 -0.03183233704861088 0.6750837115733762
75 -0.6111951671355756 0.006189677268224771 -1.8079024171150972
97 -0.40414855073562195 1.485308245728188 -0.1197245305521019
45 0.05105605238372572 -0.8557048058646406 -0.922400225157391
68 -1.2681428377522117 -1.1692904308931464 0.2015800248503191
69 -0.5423033389923754 -0.12977521706479078 1.6574132551884222
88 0.10889070400195455 -0.20567859935605862 1.2612669536631063
18 -0.746364791879954 -1.0568332580352926 0.9483663490382194
11 0.014587137746360682 0.47745269687616987 -0.913136611229597
92 -0.08120468909495068 1.1994502807549043 -0.16483208710761177
28 1.1846455402432075 0.7043634228814213 -0.06062113026848663
34 -0.7368096390528868 0.32639493369758005 1.4531594062364115
80 0.8431559690413476 -2.0686518662183935 0.5852628828570933
40 -0.29885944475802806 1.9365359886678122 0.5744541205403415
99 -0.07794681897095349 -0.010746735419844222 0.23393153046932225
12 0.21757530230604477 0.7026251666006715 1.2402461604656312
61 -0.09870715476809426 -1.0014465001945854 0.9821751966123708
26 -0.14269729779977577 2.258774060697971 -0.8194351432082552
85 -2.1420726204120837 -0.4504683188718363 0.5999045172461239
33 2.426017001766613 -0.4697011856755249 -1.008494139322362
70 -0.38811690532986143 0.3961024209336813 0.8992521351301478
77 0.9098519182721924 -1.094943075901746 0.2954995101896994
17 0.04654541015341254 -0.4585800414288122 0.5176799307487459
29 -1.1717862248791155 -0.6963012998800484 -1.5115631115311638
84 0.12894371669845806 0.08167803584944494 0.327954920287844
72 -0.647403149604842 -0.08908126758401247 0.05413832192208824
4 0.4340810280189161 1.0919974790134628 0.29078750393825514
100 0.07824194611939815 -0.37174479370299157 1.7070236698933154
47 -0.9456158880275387 1.508622080826886 0.3113502136171514
10 -1.193434533170721 1.4689538622860163 -1.3034486518769823
35 0.03379831747873742 2.0879643837451805 -0.20450732770331367
41 -0.028330657577409032 -1.1121435330882414 -0.4988434569782823
24 2.7911018403744743 0.45042991585148723 0.09754712924322297
36 -0.5804270536828452 -0.5607196989252058 1.0567731662228204
42 0.058770994942657626 1.974207043068466 -1.2786725041961708
2 0.2512391951425697 0.13759844702173968 -0.7105646948115543

Bonds

1 1 14 93
2 1 14 65
3 1 14 38
4 1 14 83
5 1 55 76
6 1 20 65
7 1 20 49
8 1 20 83
9 1 20 55
10 1 22 56
11 1 13 51
12 1 13 22
13 1 13 67
14 1 51 91
15 1 44 78
16 1 8 38
17 1 8 78
18 1 8 37
19 1 8 74
20 1 57 60
21 1 25 30
22 1 25 46
23 1 30 32
24 1 71 90
25 1 31 63
26 1 23 95
27 1 23 39
28 1 21 79
29 1 15 76
30 1 15 21
31 1 15 31
32 1 15 53
33 1 3 52
34 1 3 85
35 1 3 49
36 1 3 81
37 1 53 90
38 1 62 98
39 1 16 60
40 1 16 94
41 1 16 88
42 1 16 56
43 1 86 96
44 1 50 91
45 1 50 58
46 1 48 62
47 1 48 54
48 1 7 57
49 1 7 37
50 1 7 96
51 1 7 88
52 1 46 89
53 1 73 82
54 1 1 64
55 1 1 54
56 1 1 72
57 1 1 32
58 1 6 85
59 1 6 27
60 1 6 61
61 1 6 63
62 1 19 86
63 1 19 64
64 1 19 73
65 1 19 71
66 1 27 74
67 1 87 95
68 1 5 44
69 1 5 43
70 1 5 89
71 1 5 29
72 1 59 81
73 1 59 68
74 1 39 66
75 1 9 97
76 1 9 43
77 1 9 79
78 1 9 35
79 1 45 52
80 1 68 97
81 1 69 98
82 1 18 36
83 1 18 92
84 1 18 67
85 1 18 34
86 1 11 28
87 1 11 41
88 1 11 58
89 1 11 99
90 1 28 69
91 1 80 94
92 1 40 77
93 1 12 80
94 1 12 61
95 1 12 100
96 1 12 33
97 1 26 70
98 1 33 42
99 1 17 66
100 1 17 77
101 1 17 75
102 1 17 47
103 1 29 70
104 1 84 100
105 1 4 82
106 1 4 87
107 1 4 84
108 1 4 72
109 1 10 75
110 1 10 47
111 1 35 45
112 1 24 92
113 1 36 41
114 1 2 42
115 1 2 99
116 1 2 24
117 1 2 26
