LAMMPS data file via write_data, version 22 Oct 2020, timestep = 1000000

100 atoms
2 atom types
117 bonds
1 bond types

-20.0 20.0 xlo xhi
-20.0 20.0 ylo yhi
-20.0 20.0 zlo zhi

Masses

1 1
2 1

PairIJ Coeffs # lj/cut

1 1 1 1 2
1 2 1 1 2
2 2 1 1 2

Bond Coeffs # harmonic

1 2.5 1

Atoms # bond

64 1 1 -0.40818987702052295 0.6218822155785678 -2.5654758589647964 0 0 0
19 1 2 0.0939686933083266 1.4405391961385134 -1.3498168623222908 0 0 0
54 1 1 -0.4178816323017969 0.45042901597461904 -1.2697038200201118 0 0 0
69 1 1 0.6612101001563893 -1.1528294975533575 -2.262893740790288 0 0 0
72 1 1 -1.0734990206739041 1.4800734387690442 -1.3398243728270949 0 0 0
1 1 1 -0.5827287690942423 0.5619115632050063 -1.5188741043089138 0 0 0
50 1 1 -3.051823222082369 -1.3924848865694799 -0.05157702444796371 0 0 0
28 1 1 -0.6326103129365248 -0.9639313876095771 -2.5659510019540095 0 0 0
99 1 1 0.1724324964653978 -1.5439318555382322 -1.4798374485831944 0 0 0
98 1 1 0.46440856759823224 -0.4950627642842317 -1.7889018733089495 0 0 0
62 1 1 0.23951420742294535 -0.45142976409574287 -1.666045850820593 0 0 0
48 1 1 0.8099690770880096 -0.8148212107657825 -0.5957108549066835 0 0 0
90 1 1 1.8113158028981062 0.7457856713734694 -1.547049197314866 0 0 0
71 1 1 0.4494541782731884 0.5649233923706636 -1.948814158138177 0 0 0
67 1 1 -0.9228073494725938 -0.4638073465147095 0.2446994546857266 0 0 0
56 1 1 -0.2030760286892234 -0.6422562132330861 -0.6895027320513805 0 0 0
86 1 1 -0.44179810883150705 1.0946327519133514 -0.47347347625853614 0 0 0
57 1 1 0.7535001638985039 0.34625342665359476 -0.7925407315110625 0 0 0
96 1 1 -0.8250798506909182 0.9588671712153437 0.0656080442327458 0 0 0
16 1 2 -0.14456821463569067 0.09141312533551442 0.02259550503749176 0 0 0
73 1 1 0.014935645796548224 2.030478921153989 -0.5555016494894894 0 0 0
60 1 1 0.725474960498556 0.31783567214093816 -0.8039305266373596 0 0 0
22 1 1 -0.19749823437484043 -0.4836203340658641 -0.764867765736149 0 0 0
32 1 1 -1.8711941751449082 0.3204309587413687 -1.9371515818533231 0 0 0
84 1 1 -0.8857866019749789 2.1006312873252555 0.930226527804884 0 0 0
82 1 1 0.07617594659123046 2.4259816034122457 -0.6856054954862538 0 0 0
4 1 2 -0.9042360052927902 2.3023173370478083 0.0792132283815369 0 0 0
47 1 1 -2.74381586412169 -0.48852290437588425 0.4601098752911445 0 0 0
100 1 1 -0.6708132596362837 0.35972078715038347 1.7153565764910357 0 0 0
91 1 1 -1.8045624107643994 -1.8253721652943022 1.0108518055390403 0 0 0
41 1 1 1.1202831006519054 -2.1352403424080904 -1.098491784233776 0 0 0
36 1 1 -0.054847597455181106 -2.6666329792208336 -0.8007464041518404 0 0 0
58 1 1 -2.0518089225500407 -2.1412816140034883 -1.3612642783287143 0 0 0
11 1 1 -0.008762427955845954 -1.556123240534774 -1.4100364928359452 0 0 0
24 1 1 -1.0039955234869409 -1.251148316723083 -0.7597903456227867 0 0 0
2 1 2 0.1838414808930389 -1.5848382147707194 -0.34411342316812943 0 0 0
31 1 1 1.006930568666363 -0.14604786208817994 0.1743750616810748 0 0 0
63 1 1 1.0427840948081228 -0.24642740391195475 0.1700691963399662 0 0 0
53 1 1 1.7348284962228793 0.6872361495890098 0.05351333767503047 0 0 0
15 1 2 1.6997053763961518 0.7528525391618246 -0.2699394472300751 0 0 0
81 1 1 2.1950718571226973 1.4085193059303456 1.2493772388521107 0 0 0
13 1 2 -0.8901861031863219 -0.6674024228395522 0.23450567694172908 0 0 0
12 1 2 0.38455952587630493 -0.07305719134017752 0.967834140603631 0 0 0
40 1 1 -1.2534473710291194 0.16756391038237675 -0.663258042824064 0 0 0
42 1 1 0.12895362283139947 -0.8437447286074177 0.22422003035649563 0 0 0
94 1 1 0.520844026238433 1.0672160388292062 0.15728817822329222 0 0 0
80 1 1 0.6316872134160171 0.9833110048154139 0.21659749456629832 0 0 0
88 1 1 -0.013892076588998183 0.1844367109348777 -0.02672430953880315 0 0 0
55 1 1 1.1822628560588666 1.4704545053695484 -0.8558676362126774 0 0 0
20 1 2 1.6851977121968902 2.1110792161144802 -0.20647403200039752 0 0 0
76 1 1 0.9268930639081582 1.862805128872749 -0.9684554875476417 0 0 0
65 1 1 0.8126038198044809 2.926905538682088 -0.0863530894021565 0 0 0
85 1 1 1.6086140970714695 0.7587662477364182 2.067198301497732 0 0 0
30 1 1 -0.910497121155996 -0.4070893510842711 -1.6735970454136302 0 0 0
10 1 2 -2.2048516090567434 0.010613700770661972 1.9173361999455223 0 0 0
66 1 1 -2.577742911765701 0.30173271084344977 -0.3063812541878684 0 0 0
39 1 1 -2.2029073040454583 0.6951571530339935 -0.900867544594862 0 0 0
77 1 1 -1.3044098196485359 0.19863567557105066 -0.7416606753579867 0 0 0
37 1 1 0.10148097714082926 0.8511980529089703 1.130135782356255 0 0 0
7 1 2 -0.3756568123857638 0.9222062600273153 0.7536954389794274 0 0 0
33 1 1 0.2484915094699888 -0.5268845825876868 0.8519976657716704 0 0 0
74 1 1 1.164438425925766 0.957080557212925 1.0100809022672381 0 0 0
8 1 2 0.7290376701329957 1.2097751689700162 1.5672785320978735 0 0 0
87 1 1 -1.5517953052160038 2.2621368999888634 -0.12993140663975514 0 0 0
83 1 1 1.2745293022609014 1.7727798613707106 0.24485024406176706 0 0 0
38 1 1 0.28482288393280475 1.7013900117406486 1.97703893327528 0 0 0
14 1 1 1.074796606237821 1.9798915765861576 0.7864169908934302 0 0 0
17 1 2 -1.9772921592810688 0.3649182746178971 0.4981133004074067 0 0 0
75 1 1 -1.8052417217416399 0.5913737484265067 0.6515207072561701 0 0 0
23 1 1 -1.9225378051104687 1.3783877650351744 -0.15474138961596862 0 0 0
95 1 1 -2.5337765875859066 1.2405611983703118 0.23680345320608126 0 0 0
93 1 1 0.1788287251089313 1.8891681006854257 0.741955949583684 0 0 0
34 1 1 -0.7467992717939016 -2.078575069987917 -0.1960963161932059 0 0 0
79 1 1 2.6213270535960906 -1.3499628821675809 -1.1977428328613118 0 0 0
21 1 2 1.690775540041192 -0.33384056840267057 -0.9069151072923426 0 0 0
92 1 1 -1.4750914372667752 -1.5507167110652091 -0.5487015221536128 0 0 0
18 1 2 -0.8314516277176462 -1.613166759960319 0.14192786966933732 0 0 0
26 1 1 0.2793084759647043 -1.6487588471327221 -0.33316474598476725 0 0 0
70 1 1 1.022935114166458 -2.6840176478586213 0.3782014768529697 0 0 0
68 1 1 2.08689829796189 -1.1010834603970046 -0.03957328955864552 0 0 0
59 1 1 2.109706070307762 -0.44722258706307744 0.24137860575566128 0 0 0
35 1 1 1.0928439107196974 -1.1375726201560494 1.8887886397136926 0 0 0
45 1 1 2.4620163463269025 -1.1657007846191063 2.580174244245196 0 0 0
51 1 1 -1.866090262674323 -1.943270257826599 0.4250101042438584 0 0 0
46 1 1 -1.8928888343733736 -0.5925433593683113 -0.21083007979514384 0 0 0
89 1 1 -1.6585907069929995 -0.5921945149474909 1.088407694488309 0 0 0
61 1 1 0.226197663204658 -0.8150651126413349 2.5101460869305665 0 0 0
6 1 2 1.4576589871638146 -0.10746975321790489 1.1790965030650407 0 0 0
52 1 1 1.5437219488095635 -0.20863511892640677 2.4975830305453703 0 0 0
25 1 1 -0.9097847593721602 -0.45749526139141483 -1.556027493691204 0 0 0
78 1 1 0.5486437586154985 0.4910052435569919 2.0775884549951513 0 0 0
44 1 1 -0.6452839820410057 -0.9180153911139132 1.2083144515131816 0 0 0
49 1 1 2.3113642558201186 0.3935058987266545 1.0491879865622398 0 0 0
27 1 1 1.20257667822304 0.5736403368842482 1.0573912177994431 0 0 0
43 1 1 0.23643677889613274 -1.6402703699916845 1.2470377870244007 0 0 0
9 1 2 1.1937779783361904 -1.276223845936344 0.5769519358586368 0 0 0
97 1 1 1.3099743712991252 -1.4661423755837768 -0.06028257380384027 0 0 0
5 1 2 -0.7574600400346186 -0.7136542083896795 1.2985517968172378 0 0 0
29 1 1 -0.5629792117090765 -2.3121343393476654 0.8546382696281465 0 0 0
3 1 2 2.182028169139306 0.7373084002672932 1.749838247961427 0 0 0

Velocities

64 0.33733560927255385 -1.1748362248795223 -1.9289266830999237
19 -0.0031144473559845676 0.7892910897026 -0.030000900472854947
54 0.41331244107609316 -0.20512251756221495 0.5169166335550007
69 -2.1685201789600157 -0.6164351158158804 -0.863361931405755
72 0.8101124102635895 -0.8444124637975645 1.77313417932835
1 2.2649365339993746 0.1415062428684829 0.7806479868357067
50 2.9381050638397586 -0.036961119609448374 -0.5059248122516944
28 -0.091486369827634 0.7073937131410029 0.019755196861062196
99 -1.2109299045924367 0.17476045509958882 -0.36628885159871427
98 -1.1402166165348018 0.8382870064142546 -0.8523449368266953
62 -0.5785656290429747 1.8970166181694652 0.3984489188825773
48 -0.10566233932310551 0.3391834719125342 0.9325567162796353
90 0.30382571866133745 -0.920948834951535 -0.6815705365982918
71 -0.43913627817463036 2.1840910433051297 -1.1056615731744937
67 -0.10050134672764002 0.7882395458609754 0.6496411250211273
56 1.5942903093667486 -0.8862067085141129 0.4617279679608691
86 -0.5556015539116439 -0.2968541157524677 -0.4922438936287238
57 2.515966359633635 -0.10118982223003745 0.11728135331634276
96 -0.6829807942401713 1.006773006461118 1.0527842941679053
16 -1.457368802490977 -0.37386637833121744 0.3597501369772896
73 -0.30552249644110574 0.21043157727746373 -1.0270330043841
60 2.0619235490494496 1.522818247225918 -1.362932741909733
22 0.9201598792285208 -0.33461909765303055 1.025153560507484
32 -0.8721349076922634 -0.18308375720907785 0.17148915331566672
84 0.21506048304472827 -1.913539459054165 0.067341896283509
82 1.121177036685002 -0.528751928499029 -0.17722187794061234
4 0.12282073498551381 1.395669315158558 2.486315812015892
47 -0.6665842757574969 -1.6805427583999686 -0.18809714392222077
100 -1.806645158579564 1.031807979071135 -2.2604314634608804
91 0.8986742538924613 1.2296202678697512 0.15314610090210323
41 0.21016880241575842 -0.6872913339906678 -0.17831183097850173
36 0.8313002810109302 1.5519559263464748 -0.27726676440487436
58 1.9885595161356806 0.9822831768611814 -0.4376043663403099
11 0.41298301551418104 0.11900972571034454 1.4261057024473103
24 -1.6931542634198804 0.14320651620416205 -0.902502041961357
2 1.5870187740702504 0.7364142503139756 0.4249234435148358
31 -0.659943351760964 -0.6385435180980656 0.6218155240803331
63 1.3039831883540638 -0.38426053303787566 -0.34922415682853863
53 1.4710822589530481 -2.09747043684992 -0.21122949747970432
15 0.90568059946923 -1.5471842805157763 -1.294902368572216
81 0.34934876322225 2.2183615757587196 0.2926868248889825
13 -0.11148526167265925 -1.4391238064018252 -0.7298362477992018
12 -0.06719581646105849 0.6744714661663965 0.6727060984635126
40 -2.1535691375670276 0.3147407485550534 1.2367096737907417
42 -0.5011848441036979 -1.2696754788527624 0.8000154461190316
94 -0.7725874448508286 0.5614850384835366 0.5774328868165635
80 1.2069843680006953 0.3091899785360597 1.0045182335589045
88 0.050569046013571414 0.49586514081272043 1.9790490821389204
55 -1.0667917919892913 0.5379257374709363 -0.48234145728365835
20 -0.060352489055664295 -1.2439739097378 -0.1766473633541586
76 -0.3861170486193494 -1.8260537433877357 1.46162046772453
65 0.09828730757171447 -0.591283035749756 0.01865650566324413
85 0.8501798149704419 1.0322571931062174 0.8672290502393499
30 -1.5585843816208695 -0.05186057304818059 1.0518442049783627
10 0.037654567654877714 -0.8739896614882701 -0.8583167039002044
66 -0.8060257308097031 -0.931473813831963 0.7766314500297867
39 -0.9860154778054344 1.2130674876020362 -1.3722889908481046
77 -0.42953210532620434 0.05650567345253517 2.9698689267846388
37 -0.6587796532256647 0.18899373067497893 0.6223504139106861
7 -0.704897411250311 -1.034852405978047 0.13602713028488056
33 -0.2698545706445125 -0.9618709310277033 1.113724448390586
74 -1.4414114759475887 -0.06837821544123235 -0.23617082355139035
8 -1.4090362987447187 1.7348693239295843 1.1654641607101333
87 0.924552134268956 0.23988132373394636 -0.7446929827794195
83 1.2896156336453661 -0.11889519491829814 -0.07581636330498996
38 -2.036135866929434 0.2539230007028176 1.1616711798969335
14 -0.7847076151270055 -2.821642790747858 0.8719707626147941
17 -0.10936166984680235 0.7953858936063043 -0.3800706791103894
75 -0.045962815310403596 -0.5783720885204586 -0.7091909134138821
23 -1.3406977278409857 0.8800644221934169 0.06503300584311168
95 -0.7315062728571329 2.4958119995209196 -1.378428814508624
93 -0.03405880739217601 -1.3765505272928324 -0.9143016395257413
34 -0.728325400319305 0.22109464727575115 0.5840682822354862
79 2.3911885872646352 -0.2626228446060414 -0.8916160229609339
21 0.5007878736277767 -0.6683395526979813 0.528385372897271
92 0.8080678744158435 -1.1235056208771637 -0.151251350166353
18 0.9735617109458969 0.5598862001379716 1.1820211911442937
26 -0.19686713439656922 -1.6836900413189466 -0.2056389059047627
70 -1.4153486167370994 0.5576033549933669 -2.022358819719765
68 -0.5704995627406452 -0.917699755428857 -0.9651272713709435
59 0.6142143982631412 0.18261539449996061 -0.47465282246839474
35 1.9627202641717125 1.8191840885324861 -0.2119970226035658
45 -1.5410709040560548 -1.028818955925483 1.3617372312907863
51 0.06188710329187813 1.4789876019766897 -1.4227831964130018
46 -0.13139972281336745 0.368897755022302 -1.4608501257510267
89 0.43148393263854606 -0.3496189411398594 -2.106580626234019
61 -0.9716160954827106 1.3314746612306856 0.05616812060816587
6 1.939923113866136 -0.174900887375805 1.2519530392192553
52 0.17450665375632504 0.5362818759513034 0.5649413756239435
25 1.3357448856878258 0.21932544974994225 0.9011200454038173
78 0.7095607612249942 0.7784651732831809 0.1026525951346184
44 -0.07111421422190395 1.2330705829904778 -2.201634506095513
49 0.22307305590763807 -0.6466608612958513 -0.6660937012504401
27 -1.1078588495844957 -0.28801207015966906 0.672211377997938
43 -1.1586088429854309 1.1679496016057316 -0.6654986972348684
9 0.077494771511907 0.3646060822147005 -0.7272971890534653
97 -1.7074186902098127 -0.015695669515413457 2.149187429235392
5 -0.8328638046980955 -1.727088525393601 0.8939859007928329
29 -1.325704023683776 -1.924671336603666 -0.21937277423763485
3 -0.8073836058923153 -0.11516470501272896 -1.9714135307637477

Bonds

1 1 19 86
2 1 19 64
3 1 19 73
4 1 19 71
5 1 69 98
6 1 1 64
7 1 1 54
8 1 1 72
9 1 1 32
10 1 50 91
11 1 50 58
12 1 28 69
13 1 62 98
14 1 48 62
15 1 48 54
16 1 71 90
17 1 86 96
18 1 57 60
19 1 16 60
20 1 16 94
21 1 16 88
22 1 16 56
23 1 73 82
24 1 22 56
25 1 84 100
26 1 4 82
27 1 4 87
28 1 4 84
29 1 4 72
30 1 36 41
31 1 11 28
32 1 11 41
33 1 11 58
34 1 11 99
35 1 24 92
36 1 2 42
37 1 2 99
38 1 2 24
39 1 2 26
40 1 31 63
41 1 53 90
42 1 15 76
43 1 15 21
44 1 15 31
45 1 15 53
46 1 13 51
47 1 13 22
48 1 13 67
49 1 12 80
50 1 12 61
51 1 12 100
52 1 12 33
53 1 40 77
54 1 80 94
55 1 55 76
56 1 20 65
57 1 20 49
58 1 20 83
59 1 20 55
60 1 30 32
61 1 10 75
62 1 10 47
63 1 39 66
64 1 7 57
65 1 7 37
66 1 7 96
67 1 7 88
68 1 33 42
69 1 8 38
70 1 8 78
71 1 8 37
72 1 8 74
73 1 87 95
74 1 14 93
75 1 14 65
76 1 14 38
77 1 14 83
78 1 17 66
79 1 17 77
80 1 17 75
81 1 17 47
82 1 23 95
83 1 23 39
84 1 21 79
85 1 18 36
86 1 18 92
87 1 18 67
88 1 18 34
89 1 26 70
90 1 68 97
91 1 59 81
92 1 59 68
93 1 35 45
94 1 45 52
95 1 51 91
96 1 46 89
97 1 6 85
98 1 6 27
99 1 6 61
100 1 6 63
101 1 25 30
102 1 25 46
103 1 44 78
104 1 27 74
105 1 9 97
106 1 9 43
107 1 9 79
108 1 9 35
109 1 5 44
110 1 5 43
111 1 5 89
112 1 5 29
113 1 29 70
114 1 3 52
115 1 3 85
116 1 3 49
117 1 3 81
