LAMMPS data file via write_data, version 10 Feb 2021, timestep = 2000000

148 atoms
2 atom types
166 bonds
1 bond types

-20 20 xlo xhi
-20 20 ylo yhi
-20 20 zlo zhi

Masses

1 1
2 1

Atoms # bond

88 1 1 4.403618313650375 -0.12992854362716932 -5.024668458076746 0 0 0
83 1 1 3.6119546476347852 -0.9232843167535506 -4.457563936435102 0 0 0
52 1 1 3.2143425063316013 0.1411949897987529 -4.981801166087743 0 0 0
28 1 1 1.539925248854458 -0.7785875519723947 -4.681157563554735 0 0 0
25 1 1 4.716231006775203 0.6975455197138173 -4.418023280259298 0 0 0
11 1 2 3.960935089082998 0.007776689849879875 -3.842829315163873 0 0 0
76 1 1 1.4096072664751471 0.36624422654066446 -4.468440811138238 0 0 0
105 1 1 4.247065729267077 1.1147201500928046 -3.4977344846502514 0 0 0
13 1 2 1.0641036743331267 1.4109955481122205 -3.9327188946891165 0 0 0
138 1 1 0.48607156752203257 2.1036611165165615 -4.900038591532808 0 0 0
89 1 1 3.3086610368161242 1.3145155090312177 -4.211422764348096 0 0 0
82 1 1 0.07835766304548004 2.638341080592061 -5.8395261831959475 0 0 0
144 1 1 -4.21559806343062 4.122165011153948 -3.604225774859632 0 0 0
78 1 1 0.7929836893012101 -3.223973176532689 -2.9380118818857386 0 0 0
91 1 1 1.5084026983791121 -3.0280440061181997 -3.738831265750208 0 0 0
55 1 1 0.44550546030884913 -1.9358463273901858 -2.6476037439326245 0 0 0
54 1 1 0.7652038142043683 -2.43074740159077 -4.478285870305505 0 0 0
48 1 1 -0.9365958695098766 -0.8326138385675925 -0.6496512167738578 0 0 0
20 1 2 1.1777618311192875 -1.447960524885681 -3.614015873124194 0 0 0
36 1 1 2.1795600113796394 -0.8037146384581659 -3.445727377522241 0 0 0
8 1 2 2.925728196217149 -0.8551894426170628 -2.532447834645777 0 0 0
139 1 1 -3.622466718652115 -0.3117644364714129 -2.5431442381549183 0 0 0
32 1 1 1.6088280326675048 1.6219930860930463 -2.9337125699748814 0 0 0
121 1 1 2.1106112182021657 1.2742405911140078 -4.342085896864974 0 0 0
111 1 1 3.2178159722281423 0.19589843252889672 -2.0850370020082085 0 0 0
136 1 1 4.023972466423785 -0.529572630219731 -2.895324161614028 0 0 0
43 1 1 -3.61907790677801 0.9723330620713146 -3.5786447627865896 0 0 0
72 1 1 -3.947675107002284 2.9870646943066013 -3.3649245899000646 0 0 0
95 1 1 0.24612586220788032 -3.582801555840562 -1.723489178685828 0 0 0
15 1 2 1.3358249787444383 -3.333388388547925 -1.840409033985733 0 0 0
133 1 1 0.3059015560910745 -2.5009131625501375 -0.5868722594201666 0 0 0
2 1 2 -0.18071711229452078 -2.4964348599098254 -1.6035485840241277 0 0 0
102 1 1 1.8337203050514226 -2.2957782463057024 -2.3111803056133366 0 0 0
96 1 1 1.6863532062611557 -1.1393308456243183 -1.832101779293411 0 0 0
93 1 1 -4.413946541593629 0.9490764502992514 -1.4049969724712272 0 0 0
109 1 1 -3.3530955631066695 0.3497543931431357 -1.5148301903971633 0 0 0
134 1 1 -0.9477860723105019 -2.0748942928479464 -0.8065565488389012 0 0 0
4 1 2 -0.1081603150776952 -0.3762670064640203 -1.430636348046057 0 0 0
29 1 1 1.042080707315722 -0.03955500409383013 -2.3314027211999173 0 0 0
126 1 1 3.168423333164186 -0.8995456824851977 -1.2605599195083106 0 0 0
21 1 2 -4.608668387294615 -0.025302452511140282 -2.0914380931950416 0 0 0
110 1 1 -1.3303342322058136 -0.3895562400658305 -2.121154594810182 0 0 0
85 1 1 -0.45952539033171325 0.29393564032127417 -2.405388338025973 0 0 0
30 1 1 0.45699064521495975 0.9083844056924175 -2.7573217893734596 0 0 0
12 1 2 2.088985190809149 -0.5317386625968318 -0.7254755519806098 0 0 0
10 1 2 2.3370306301931607 1.0002145221930425 -2.2874337711299 0 0 0
75 1 1 -4.455472314855385 0.14157036249383495 -3.225830765797538 0 0 0
46 1 1 0.4348099939877637 1.0482335202367883 -1.4336638585158565 0 0 0
123 1 1 2.0435431564306854 0.6359960182437606 -0.29859339485637415 0 0 0
50 1 1 1.6198104297338825 0.9089945264425778 -1.3431792833603595 0 0 0
100 1 1 -4.057456852153875 1.756041483536653 -2.8024945889561166 0 0 0
81 1 1 1.0019830778643906 -8.024045539631695 -0.8174449430387414 0 0 0
67 1 1 -0.08570504130390219 -6.238973219585535 -1.4441110775379893 0 0 0
57 1 1 0.11533616549650536 -7.251958361987463 -0.888594232940559 0 0 0
56 1 1 -0.03664737906943337 -5.25750079958451 -1.9878539826122397 0 0 0
47 1 1 0.7651803956394378 -4.514963043351826 -1.3768544604115782 0 0 0
38 1 1 2.7593456031877555 -4.819908357635174 0.3924273771512103 0 0 0
148 1 1 1.8854745088286808 -4.0024150184695095 -1.1485810046320963 0 0 0
58 1 1 3.0051567139545114 -4.486192932686553 -0.7020322497452606 0 0 0
49 1 1 0.29711963583747186 -1.5579288304424752 -1.233205908334317 0 0 0
145 1 1 -2.179775042343941 0.4507300914968707 -1.4253198345587348 0 0 0
98 1 1 0.9898935999658359 -1.447637813113648 -0.3089340350394998 0 0 0
86 1 1 0.9611986696467265 -0.42189606388676065 -0.7805637721284058 0 0 0
120 1 1 3.1192925512108447 -1.2851719980499694 0.4512285585264585 0 0 0
70 1 1 2.817183048045312 -0.1728365085082212 0.011895056013692397 0 0 0
103 1 1 2.812570160788142 2.054235004066966 -2.039765695106279 0 0 0
61 1 1 2.566253708003431 2.0393228962690784 -0.9092475547882797 0 0 0
7 1 2 -0.46633428830873164 1.593705174434359 -0.8998926624112276 0 0 0
124 1 1 -0.4687587466813544 1.476951479878301 -2.101254763478607 0 0 0
141 1 1 3.49886875292446 1.4794214845032756 -0.4437143139741626 0 0 0
73 1 1 -0.026900451430360583 1.4749925878798562 0.15435080394055045 0 0 0
90 1 1 0.6067692328453351 2.1435548061350738 -0.4091949595996907 0 0 0
60 1 1 3.680850028947131 3.095613626910708 -0.4004198566234337 0 0 0
24 1 1 4.248038845397031 2.0646766639087097 -1.0221856947054293 0 0 0
92 1 1 1.0515313312613968 3.3292966482339135 -0.45759177339613255 0 0 0
22 1 1 0.2691536685926972 3.735615376938645 0.3031118950437156 0 0 0
27 1 1 1.236806812892192 -6.8716156051923525 -0.6766738941355668 0 0 0
122 1 1 -0.4262575753129358 -4.507364728055345 1.4693548452107206 0 0 0
5 1 2 2.2451309293743926 -4.043570607637 1.1089528151081163 0 0 0
68 1 1 -1.0098606893796334 -3.9140118820011414 0.7366626387472635 0 0 0
59 1 1 -1.6590801439587428 -3.1809300576023842 1.6492479485761913 0 0 0
116 1 1 1.9484024478127677 -2.9631056435239143 1.0072755050532032 0 0 0
142 1 1 2.5821618286611985 -1.243433367457237 1.5165529098057755 0 0 0
37 1 1 0.891514899280495 -0.7268458507631143 0.5838105030051426 0 0 0
104 1 1 0.47354076688768054 0.37918993454204536 0.3630609164529162 0 0 0
99 1 1 -2.379712838247121 4.221072053343056 -0.7045615134356752 0 0 0
64 1 1 -3.1883523240484193 3.739787344608822 -0.0603294100099498 0 0 0
80 1 1 -1.8262956466906441 3.2502067245367217 -0.2595774862526394 0 0 0
63 1 1 -0.27800843711164797 0.5152513331443451 -0.662541036011814 0 0 0
113 1 1 -0.9852350636171807 2.54265803433137 -0.5638619006031702 0 0 0
40 1 1 1.1288362482292007 4.304914261885743 0.7321837667472588 0 0 0
69 1 1 0.26409879210953596 4.901532568798241 1.4405932170245133 0 0 0
147 1 1 3.767466236839433 2.9217910535311917 -1.561884912390602 0 0 0
137 1 1 1.1932283811549325 -5.674691575728151 -0.3614355619331098 0 0 0
130 1 1 2.279649603640502 -5.743216576581021 0.9618615322199446 0 0 0
127 1 1 1.818667559519666 -4.916864782217312 1.6063320460164503 0 0 0
33 1 1 0.13778327839768964 -4.716180613671977 0.41982856507484434 0 0 0
18 1 2 1.155681729963427 -5.518719481738031 0.7395701621856171 0 0 0
39 1 1 1.2215180761625433 -4.384964970640385 0.7837223994578323 0 0 0
31 1 1 2.698492030515541 -4.4083102042799975 2.2519540009674186 0 0 0
114 1 1 -2.009185932082827 -2.152152569348245 2.2690732682888672 0 0 0
14 1 2 -1.6175346574143044 -1.3175291999363041 2.973583529785905 0 0 0
135 1 1 1.6486151228771235 -2.4065345193397607 1.9941514811571908 0 0 0
26 1 1 2.4718675365518905 -1.6551208573283283 2.6479072477400094 0 0 0
74 1 1 -2.2711780834615856 -0.32781900486418464 3.609881779826593 0 0 0
94 1 1 -1.2264297552577383 -0.18231101347382178 2.6509421301150455 0 0 0
51 1 1 -4.450762357873191 2.055682850422583 1.4410958560577325 0 0 0
128 1 1 -3.8253523087306323 0.7733135759274994 2.8832390783238697 0 0 0
16 1 2 -3.6212285736876137 1.3985045546481054 1.8840502409329172 0 0 0
65 1 1 -3.0649580257913547 1.7840400101930425 0.9657090235178123 0 0 0
117 1 1 -1.3175506145939635 1.7945300597053855 1.6684361662776324 0 0 0
23 1 1 -0.24144076700972586 -0.43546754899951434 3.3352865402268277 0 0 0
140 1 1 -3.8926001666972794 2.6825908685308324 0.02310715160539041 0 0 0
106 1 1 -4.9434631964845375 2.575082083539401 0.5005550040947069 0 0 0
118 1 1 -1.844871014628494 3.149785171469011 1.1837789399021423 0 0 0
6 1 2 -2.447170545112712 2.3021300042538133 1.763321310481451 0 0 0
1 1 1 -2.780740607607293 2.8397665778864183 0.5376625965193187 0 0 0
115 1 1 -3.4470305741111464 3.223442635760636 1.4245981345164838 0 0 0
77 1 1 -0.5946124177647252 4.230877642818769 2.3891624641987557 0 0 0
79 1 1 0.061225781434242836 4.972275115157347 3.0725411296386613 0 0 0
108 1 1 0.9858017780318002 5.0589206779953395 2.3101545759537196 0 0 0
41 1 1 -3.434655896224394 -0.3083169184022392 3.6949042830231353 0 0 0
66 1 1 -1.3107821187007727 -1.0191320673416335 4.110030965217014 0 0 0
17 1 1 -2.6860826164438167 0.8859289385709378 3.3948091447572724 0 0 0
112 1 1 -3.1882270781102284 0.5709975848427545 4.408335074195609 0 0 0
3 1 2 -0.44369142589001015 -0.46617186956275153 4.646681293622748 0 0 0
132 1 1 -0.6518936219337055 0.5082582149193625 4.015478744338923 0 0 0
84 1 1 -2.068625818055962 1.194221523348201 4.474099514237048 0 0 0
107 1 1 -0.6085056084177564 1.621489994310069 2.5308895060180263 0 0 0
9 1 2 -0.09840957733329617 0.6762149740310762 2.9989282414480725 0 0 0
101 1 1 0.767952031863442 1.2502489033817978 3.542275314124275 0 0 0
125 1 1 -1.914712843500109 2.7970794708735034 2.602716225174608 0 0 0
19 1 2 -2.552577579549786 2.78339645536337 3.7070116647363456 0 0 0
97 1 1 -0.9123020752774728 3.7119548343107125 4.880571854637705 0 0 0
119 1 1 -3.7527607339479787 3.2736075491091947 3.808136659742455 0 0 0
62 1 1 -0.029844820795383278 3.4782170859454484 4.150729786728525 0 0 0
42 1 1 -3.258585891609995 2.886621518092841 2.5236510783353223 0 0 0
35 1 1 -2.8833862067189973 3.682697150735827 3.255213887661686 0 0 0
44 1 1 -0.03749592496749368 3.4144589778535024 2.984983814969924 0 0 0
131 1 1 -3.290134579002814 -0.6662669597040929 4.893357940898449 0 0 0
71 1 1 -2.1568167565879155 -0.8584039099256152 5.0773266210074155 0 0 0
129 1 1 0.4759838749070358 -0.8671346485999186 5.274396717267001 0 0 0
45 1 1 1.2561174644591342 -0.1335703288026619 5.188132449583295 0 0 0
53 1 1 -3.0701285875524293 1.9888912275244117 4.5719689126942935 0 0 0
34 1 1 -0.9566528802875183 -0.7844416461316122 5.642444895043764 0 0 0
87 1 1 1.1956089865768622 0.4353633261422682 4.224592766157341 0 0 0
143 1 1 -1.8182033319487716 3.6694150697479166 3.8874312428455293 0 0 0
146 1 1 -1.7601133467378225 4.446945923924028 4.732472160600594 0 0 0

Velocities

88 -0.18940750722169053 0.01182758543517036 0.14745803892962298
83 -0.01694068182326684 0.1426017368209142 0.09962052527657482
52 -0.07684632235927363 -0.07951594423279652 0.15282832457553383
28 0.12082594586189345 -0.19832953572926182 -0.01025110810101365
25 -0.04896006256412266 -0.10728658227450583 0.1791830018935364
11 0.03970336479427857 -0.21547849799337082 -0.046900526157383715
76 -0.28803890788757014 0.009547189307719302 0.16149980715843856
105 0.14733200328138527 0.14639019812004364 0.16898324800032952
13 0.03172652255427495 -0.06257386771081465 -0.04554531714901554
138 -0.18394796307551922 -0.1790294441138609 0.29368086930284876
89 0.23887660592860863 0.343884341033869 -0.1572662022685779
82 -0.07958499644984293 0.3317841771499336 -0.14548481731776652
144 0.1858417919973978 -0.159256202740791 0.4431563913942903
78 0.14141342738281648 0.21245710575984905 -0.11422908189085738
91 -0.01519613941120889 0.04579502098858663 0.03146542066326834
55 -0.31605602479243067 0.3445546085756586 0.15443056946694184
54 0.10165258022711393 -0.04754010056640233 0.013556008222712378
48 -0.25426971552212846 -0.16339790060122714 -0.37418365733595077
20 -0.019691126688492648 -0.13730440112050685 0.06165950545596919
36 0.025566628428664973 0.16029541690394625 -0.21148557707796267
8 0.03673309212676522 0.21504827493981415 -0.1978386497202503
139 0.4296961627618654 0.3344688533829989 -0.14806531022867317
32 -0.27862186877897194 0.09241212588376468 0.3537548007943271
121 -0.08759957336355523 0.009519609390755236 -0.46676238437635326
111 0.23656372349040417 0.31882369104364366 -0.2762183512135711
136 0.2467443309023804 0.14543520808357221 0.18997663582658691
43 0.10078831678239329 -0.008210782729033746 -0.1269662028101991
72 -0.26675300161511484 0.09952434130661814 -0.40663116023850604
95 -0.11244900345267933 -0.09896492010529291 0.2649738085396621
15 0.35645698187340974 0.40300138441860256 -0.12112708514363939
133 0.4500122014683262 -0.014856211643674622 0.5466640436984
2 -0.27320984027097855 -0.06821200636482418 -0.029087135621197923
102 -0.015857012212985352 0.12978577754022974 0.5921171649612827
96 -0.15647668159024236 0.3588297189240367 -0.4468899926352349
93 0.11356484041314271 0.31666128625351564 -0.1901637512692235
109 0.3672171975782355 -0.3080630776780488 0.06216372560729515
134 -0.012072962508727294 0.17441826744046743 -0.06907256077715627
4 0.13785915131398455 -0.2132352692137381 0.14963452125971413
29 -0.15011957198628526 -0.11342309809631829 -0.34645922404834245
126 -0.35698191759107617 0.12004489282861018 0.2728840106658151
21 0.10951209226788573 0.002410353393103473 0.12238313142167201
110 -0.40761257016072894 -0.2963669056996576 -0.5598864000510412
85 -0.26615730442589147 0.3233982502957102 0.0002719460351680585
30 0.08183096884463899 -0.04325336577238049 -0.05543392391936322
12 -0.07178729950675419 0.3612837347051301 -0.05868783167725614
10 0.1260742872725859 -0.129315560369912 0.1292613871424434
75 0.2889044278803124 -0.2727155105624925 -0.26860106811772766
46 -0.38742110435405674 0.11830099909240255 -0.07577728591820303
123 0.2543650781963678 -0.439930145133353 0.08231694354085005
50 -0.025706767029752057 0.1980541304739729 0.13188972121526374
100 0.12204070092045755 0.024763790105525693 -0.11853111456837176
81 0.006117267686984798 0.15708842482697918 0.24899052028845686
67 -0.008997828838293817 -0.1323674841751005 -0.45435862051980086
57 -0.2575474926635239 -0.050106047948698225 0.1275998752471797
56 -0.055264555328370664 -0.13882804875511323 0.15735016792533388
47 -0.0222150287382805 -0.35106891494454784 -0.30273278230723727
38 0.16813099893662348 -0.3363199590279636 -0.0760361461760954
148 0.010511988670995774 0.11794071111407463 -0.3104406869825668
58 0.21594508033779028 -0.10486127714278673 -0.09391558377581194
49 -0.22667488733993307 0.3355568993589458 -0.1864924331071669
145 -0.11274678955253697 0.06771775701422925 -0.07635525445986788
98 -0.01407893885235767 -0.3039372992112733 -0.33653354246992523
86 -0.1356407217567877 0.3286657918433223 0.2193642164851339
120 -0.07099343202775929 -0.01898053140144435 0.26553980900733715
70 0.08582276476325966 -0.10674363962313706 0.011973706574824241
103 -0.09243093559741321 0.08280123021779001 -0.06190127676021891
61 -0.12167156899364537 0.11975905464645813 -0.021731398925558854
7 -0.1648178798612341 0.20552459591967054 1.5776303343562406e-05
124 0.1468893661621198 -0.0496078310090034 0.4156779734192747
141 0.12498903255769182 0.30659135853414016 -0.45191440644928993
73 -0.2041977971349747 -0.08337688352316724 -0.0010855460790140051
90 0.03649247412866308 0.20957942641771007 0.312671376449263
60 -0.13092888191455485 0.1319291191234663 -0.25384761464211375
24 -0.0912951283177645 -0.03824977940843988 -0.04699737548786667
92 -0.026069422932420674 0.3192404217794063 -0.06759731664932374
22 0.40374728004656796 -0.1832111578116801 -0.05094468950368587
27 0.14094723750152402 0.17431514857645056 -0.3072213011692229
122 -0.22579668369237643 -0.0670078832025725 0.11095658220071963
5 0.09498621230919296 0.058712325759188624 -0.4164058672998228
68 0.11615620789185827 -0.17201208556242462 0.15607418391064218
59 0.19157429262616937 -0.030719530715980357 0.35996174648472884
116 -0.3896130536067916 0.20586178977787986 0.3501633360814076
142 0.16134159241926263 -0.06377911784520279 0.02634814669706434
37 0.030053226996722592 -0.26956756160120865 -0.3548822703610734
104 0.18311188716671556 -0.4484655639698745 0.14120532533012162
99 -0.33340904836745805 0.5297202897970488 0.3057082309133083
64 -0.25264783223261206 -0.027106970560131543 -0.13165584470748895
80 -0.12976550101360795 0.2755047060592582 -0.09353032529813089
63 -0.1025280607003751 0.095345096144867 -0.2221915762834224
113 -0.3627215985138071 -0.6201183094266933 0.04163092148826949
40 -0.4114006206716493 -0.001980168291631532 -0.13140906728969462
69 -0.07495332361475474 -0.19198768874096592 -0.023052244360621525
147 -0.25195353730548037 -0.08174016689160363 -0.2417371347187771
137 -0.3324424440225277 0.019360519669418257 -0.45880671501245957
130 0.003750075559640141 0.13883753715338015 -0.2739464239633018
127 0.07077916437921085 -0.25304531537638675 -0.10276006196682579
33 0.013388234586806482 -0.04218540548153793 0.28034040831897283
18 -0.2708365161025512 0.09349646992878996 -0.19590205455859624
39 0.023784881114347553 0.07552355757537824 0.4388751784367389
31 -0.3095883664179705 0.22540089829605783 -0.07156736417864454
114 -0.32090676718127564 -0.07165121057064576 0.03173206817191953
14 -0.04063025459299627 0.018106456600190925 0.4088454543484865
135 0.509028839836796 -0.08943344193571871 -0.21598498352807843
26 0.1373754852729589 0.08898352008191471 -0.17320650749870492
74 0.1068034322019956 0.29667334477637636 0.04904723814622914
94 -0.16950128610115192 -0.16178413748096462 -0.09375766749720818
51 -0.02536915406884006 0.03041538500742215 -0.13535695580958915
128 -0.10214925996279532 -0.09081989662314083 0.21218648373383245
16 0.34835943515919693 0.37983055253811854 0.2770646538294173
65 -0.35693809499620904 0.040133981785177034 -0.006737565345588115
117 -0.1588107437395872 0.00393995637189369 0.09365603575500411
23 -0.320266890970294 0.045758290726345935 -0.05956598276856918
140 0.3096109632779376 -0.12666722245401296 0.03925194204460699
106 0.4012490047777244 0.3101690826877882 -0.10737034507900128
118 -0.11897730074195612 0.040185048993913126 0.18023408883823663
6 0.4265874266977608 0.4130602462689202 -0.608951385035715
1 -0.2847823136832501 0.15432714566267883 -0.012407130877437939
115 -0.30291999478224446 -0.10293465431659289 -0.17861123352581565
77 -0.20021274831815372 0.30652017574130896 0.06670149164585304
79 0.10692822457927806 -0.0963241396221462 0.10620804822669877
108 0.016482812746059693 0.30904195548053515 0.034901856006476537
41 0.20153262887607618 -0.3255260663219072 0.40100078953672497
66 -0.11048019098663846 0.49575952757341013 -0.18059349394865448
17 -0.10630856254587363 0.40590751963171245 -0.19403054838314798
112 -0.045767746741601945 0.13365259208793823 0.07122491030553137
3 -0.0681600022690213 0.21320052014053542 -0.04963471658736903
132 0.017410297009983255 0.1609257205927333 -0.09306187972381348
84 -0.06949168483967194 -0.013015908496985041 0.07102349226532477
107 -0.08106580824523638 0.1604647945494802 0.03757351497930235
9 -0.24885900991931664 0.1402217538620262 0.441210740693236
101 -0.1814253068958251 0.03086598564813825 -0.05624970568830746
125 -0.08188236374680509 -0.08215286907517819 0.19796680540353814
19 0.32270593630226707 0.16736193719626544 0.19772145416779208
97 -0.09063103087025931 -0.08140638831383508 -0.4554346289893192
119 0.1527648340300972 -0.18459513922130696 0.03249603235719027
62 0.1646884074838903 0.2407209009054802 0.33755949033423355
42 -0.2978549602587456 -0.16622723218790758 -0.29802602829531205
35 -0.11827720252265497 -0.07045538770418795 -0.33756332595786553
44 0.025205706619503027 0.0993830484010681 0.00011439247673828215
131 -0.03993969093211138 -0.0045632917157839865 -0.12576189572597501
71 0.1044673686343565 0.1541909571249911 -0.2623333998071238
129 -0.1572965653293161 -0.211793908559189 -0.25499628660177054
45 0.034611552584279115 -0.19337931268660602 0.37597245987933964
53 -0.22397538304564907 0.03787303422433228 -0.12941225997427372
34 -0.09196397733688712 -0.13706173256181564 0.15149733009796282
87 0.1272101490597221 0.39311254524199013 0.07985705342874344
143 0.48818703322134305 0.5708792419082661 0.26540209896569333
146 -0.23809626581492857 0.48522281493739744 -0.3438704511959503

Bonds

1 1 52 88
2 1 52 83
3 1 28 76
4 1 25 88
5 1 11 105
6 1 11 25
7 1 11 136
8 1 11 83
9 1 13 138
10 1 13 76
11 1 13 121
12 1 13 32
13 1 89 105
14 1 89 121
15 1 82 138
16 1 78 91
17 1 54 91
18 1 48 134
19 1 20 28
20 1 20 55
21 1 20 36
22 1 20 54
23 1 8 36
24 1 8 111
25 1 8 136
26 1 8 126
27 1 43 75
28 1 43 100
29 1 72 100
30 1 72 144
31 1 15 78
32 1 15 148
33 1 15 102
34 1 15 95
35 1 2 49
36 1 2 134
37 1 2 133
38 1 2 55
39 1 96 102
40 1 93 109
41 1 109 145
42 1 4 48
43 1 4 86
44 1 4 49
45 1 4 85
46 1 29 30
47 1 29 96
48 1 21 139
49 1 21 93
50 1 110 145
51 1 85 110
52 1 30 46
53 1 12 123
54 1 12 86
55 1 12 70
56 1 12 126
57 1 10 111
58 1 10 103
59 1 10 32
60 1 10 50
61 1 75 139
62 1 46 124
63 1 50 123
64 1 57 81
65 1 57 67
66 1 56 67
67 1 47 56
68 1 47 95
69 1 38 58
70 1 58 148
71 1 98 133
72 1 120 142
73 1 70 120
74 1 61 103
75 1 61 141
76 1 7 124
77 1 7 73
78 1 7 113
79 1 7 63
80 1 73 90
81 1 90 92
82 1 60 147
83 1 24 60
84 1 24 141
85 1 22 92
86 1 22 40
87 1 27 81
88 1 27 137
89 1 5 39
90 1 5 116
91 1 5 38
92 1 5 31
93 1 68 122
94 1 59 114
95 1 59 68
96 1 116 135
97 1 37 98
98 1 37 104
99 1 64 99
100 1 80 113
101 1 80 99
102 1 63 104
103 1 40 69
104 1 69 108
105 1 127 130
106 1 33 122
107 1 18 137
108 1 18 39
109 1 18 130
110 1 18 33
111 1 31 127
112 1 14 74
113 1 14 94
114 1 14 66
115 1 14 114
116 1 26 142
117 1 26 135
118 1 51 106
119 1 16 65
120 1 16 51
121 1 16 128
122 1 23 94
123 1 106 140
124 1 6 125
125 1 6 118
126 1 6 65
127 1 6 117
128 1 1 115
129 1 1 140
130 1 1 64
131 1 1 118
132 1 77 79
133 1 79 108
134 1 41 131
135 1 41 112
136 1 17 128
137 1 17 112
138 1 17 84
139 1 17 74
140 1 3 129
141 1 3 66
142 1 3 132
143 1 3 34
144 1 107 117
145 1 9 101
146 1 9 23
147 1 9 107
148 1 9 132
149 1 19 119
150 1 19 125
151 1 19 143
152 1 19 53
153 1 97 146
154 1 62 97
155 1 42 115
156 1 35 42
157 1 35 119
158 1 44 77
159 1 44 62
160 1 71 131
161 1 45 129
162 1 45 87
163 1 53 84
164 1 34 71
165 1 87 101
166 1 143 146
