# oxDNA Generated Gel - Generated on Thu Oct 29 12:40:15 2020

100 atoms
108 bonds

2 atom types
1 bond types

-20.0 20.0 xlo xhi
-20.0 20.0 ylo yhi
-20.0 20.0 zlo zhi

Masses

1 1.0
2 1.0

Atoms

1 1 1 2.5947427942050485 -0.8031357316879664 2.14885593581557
2 1 2 -0.6290622529162331 1.1338125432468527 -0.2731764381528716
3 1 2 -0.9105513358063329 2.9770607591270526 0.7767199015782094
4 1 1 2.9206743089399474 1.8949607533808521 0.2835112492976286
5 1 2 -0.18091471987164276 0.5240084747569931 1.8540022726164693
6 1 1 -0.2914103904686822 0.022014958629272385 -0.5384238169368913
7 1 2 -0.7577956131139629 1.8780720102017519 1.1448834048553689
8 1 2 2.1115747865049475 -0.11385566598974783 0.01162426027729957
9 1 2 2.2614847775105478 1.338674534697553 -0.9126981214727801
10 1 2 1.077673503713136 -0.1825696471834064 3.21627184830537
11 1 2 1.6302242235894475 1.489877594291153 3.4949462597584695
12 1 1 1.3347181165834474 1.809451316762054 2.5010830816135705
13 1 1 0.771267762345138 0.7568490130729426 3.627818671440968
14 1 1 3.495676675368747 -0.47907678220308725 1.3336560110741704
15 1 1 0.7871805421289473 2.8672466899964526 -0.7167612325800317
16 1 1 1.5647665480232487 -1.1184496090708373 0.3732992168790794
17 1 1 1.4354694673909467 0.8374877151136015 -0.23086383506586117
18 1 1 1.8876778829106478 -1.4044418785864075 1.433322467873369
19 1 1 2.459923127435946 0.894914175112314 0.14675306149808875
20 1 1 1.1993582001524477 3.241046088678253 1.1264092279901696
21 1 1 -0.49775412965386145 1.5463048974506535 2.224542968104071
22 1 1 0.3519346631389375 0.7134801759551621 0.018750697021378215
23 1 1 0.058207843733418585 0.17127271560752177 2.944477471341571
24 1 1 0.9402139286076174 3.595292719383753 0.1799726278765803
25 1 1 1.6047089132651475 2.6930321402295547 3.2344862828377696
26 1 1 3.766826221596048 0.5611386090506425 1.4683287897418698
27 1 1 1.2359238546581466 -0.445346924902827 1.3362729980335697
28 1 1 -1.4471894051273528 1.268428031382653 0.4335882998985383
29 1 1 2.7219586971039487 0.5282057201775405 1.1232250911398687
30 1 1 0.47396975124530627 2.9123766523286534 3.0159464608575686
31 1 1 3.226545257957749 1.5076060508398523 1.2556991879682702
32 1 1 1.5820267877032475 -0.7938825784895265 -0.7025155663495202
33 1 1 -0.5637964006688829 2.6395830306677546 1.8825659911143706
34 1 1 0.5128441578395666 1.123832540494952 2.4760927761869684
35 1 1 3.0813239231785463 2.6427263913098535 1.12049306100357
36 1 1 -1.468577002058252 1.9940598082789514 1.95664849349137
37 1 1 0.6153235488657263 0.4908525095135641 1.0941228138074806
38 1 1 1.2975648991057476 1.0637035848335827 1.710470763578769
39 1 1 2.035227353288448 2.602183786978353 0.73761536724313
40 1 1 0.381164566461047 2.1853886162198517 2.2406229895440717
41 1 1 1.5348005726565468 0.7614525355614319 2.729695809820468
42 1 1 0.11304122220928825 1.7065711457454515 0.3186277026220701
43 1 1 1.5362752044275467 -0.7758098339034785 2.346681510751271
44 1 1 2.3099450827771477 -0.4654168526570164 1.0402624923808403
45 1 1 1.421313558042348 2.934378321313851 2.1098266994519683
46 1 1 2.391009126738348 1.210999353108754 2.011553010754467
47 1 1 3.2456723389061466 2.5496048477063518 2.254794980630571
48 1 1 -0.042769961797402445 -0.19155905134289775 0.5382494853652293
49 1 1 -0.1095563806991926 2.8451230379959522 0.018226826599608614
50 1 1 -0.42385300966676276 2.2274643168647525 3.1231902244625704
51 1 1 0.11510084249343677 1.0012134190809423 -1.0935964223421513
52 1 1 0.10736560745313639 3.626983983490554 0.9227668064753303
53 1 1 2.603934598069248 0.8287515789938045 3.167427537398769
54 1 1 0.19992225319305668 -0.47709093369432765 1.579150607501969
55 1 1 0.7840154324314774 0.12315852124541316 -0.9130051591120703
56 1 1 -1.1281429372102227 0.24434689176844238 0.1874443629305098
57 1 1 1.6830152339863478 0.4388646982381115 0.848505873428179
58 1 1 0.29992148633824733 -0.8688853166451977 2.57171659365787
59 1 1 0.3902450167437568 3.245421491624054 1.9219842012021697
60 1 1 1.0310541419692782 2.482409821206451 0.3454227073461382
61 1 1 0.771066033151877 1.7102417592455534 -0.552019590727971
62 1 1 0.5648095466434668 1.8976032398521525 3.423368080414571
63 1 1 -0.23675940911274296 2.0971918777946517 -0.7676450836863111
64 1 1 3.167077331939147 -0.239587490608697 0.31856431423923937
65 1 1 2.2813421002880467 3.3006115012443527 1.519018739408569
66 1 1 0.8582538181860571 0.16135620308651255 2.1624064509462713
67 1 1 0.1937458322038772 2.510449869509351 1.037905020793529
68 1 1 -0.2885990054087433 1.1435189465940532 3.2845420170396693
69 1 1 1.1971575604772475 2.1513289604013526 1.3758697991160709
70 1 1 3.6335431320560474 0.9307044622374843 0.3831418138789804
71 1 1 -0.6394659815008339 -1.1698132870803066 1.2102485505961695
72 1 1 0.8349449452387585 -1.4064781021520965 1.768713457674469
73 1 1 1.733328454934849 0.05605691152713277 -1.449056411186361
74 1 1 1.5786820124997476 2.212341895799554 -1.1039030903444607
75 1 1 3.0884629880868477 0.12152228527270204 2.2078517952731698
76 1 1 1.7858700409894475 3.0207117952004516 -0.2212192891704703
77 1 1 1.0195330402350073 -0.17566954357797826 0.07005591253473042
78 1 1 3.3044914457100454 1.2853935201327538 -0.5908110861525913
79 1 1 2.598050785049148 2.3298694587481528 -0.619171951029232
80 1 1 -0.971322247993152 2.1651990899120523 0.04585832982767002
81 1 1 1.7965362106390472 1.8169866403526527 -0.06105576553308012
82 1 1 0.5141740033096873 -1.1697185890889568 0.7510553332265797
83 1 1 1.243105064525448 1.0207739237052227 -1.3319813627367303
84 1 1 0.23701015922800828 1.436066796932554 1.446190955199869
85 1 1 2.5093363706474463 1.8862096783395526 2.861148531330169
86 1 1 -0.5885717446158729 -0.9260337103946981 -0.013227420109009458
87 1 1 -0.7269745193428037 -0.492142883075676 2.21591658594237
88 1 1 -0.9183560190902034 -0.03430008492023795 1.2333954341942697
89 1 1 2.002892019831247 0.18968747779457296 1.9189203078826704
90 1 1 2.116450652835047 1.518455999853753 0.9641767422342991
91 1 1 0.49388241591298687 -1.0399379656539471 -0.34110920870214123
92 1 1 -1.2764638372816126 0.9352958285528121 1.5041936343125712
93 1 1 2.1962025252934474 2.2386041813180526 1.8625102566352698
94 1 1 -1.0657515550796521 0.46982891576080377 2.49174696933747
95 1 1 3.363524713950646 1.4598463318099508 2.3503906006871684
96 1 1 1.0574462938422773 1.3373791606972532 0.640808612732819
97 1 1 2.2201668919270467 -0.14539873131282732 2.94313245238307
98 1 1 -0.39167450037816387 0.8630997123782418 0.7730822995571707
99 1 1 2.3770597702480476 3.1466837540672525 2.6436794584868686
100 1 1 2.7079152857509463 0.20856017719544262 -0.8278712801598704


Bonds

1 1 23 68
2 1 72 82
3 1 10 43
4 1 48 54
5 1 12 34
6 1 6 48
7 1 40 50
8 1 9 81
9 1 76 79
10 1 4 39
11 1 3 49
12 1 16 77
13 1 42 96
14 1 1 97
15 1 71 86
16 1 61 63
17 1 8 57
18 1 5 21
19 1 9 74
20 1 3 33
21 1 9 83
22 1 7 67
23 1 8 32
24 1 30 59
25 1 14 26
26 1 24 76
27 1 10 58
28 1 31 90
29 1 9 78
30 1 92 94
31 1 32 91
32 1 54 58
33 1 39 69
34 1 20 65
35 1 90 96
36 1 11 41
37 1 46 93
38 1 38 89
39 1 13 62
40 1 6 56
41 1 11 25
42 1 2 22
43 1 20 67
44 1 65 99
45 1 6 86
46 1 64 100
47 1 27 44
48 1 1 89
49 1 45 59
50 1 71 87
51 1 25 99
52 1 38 84
53 1 2 42
54 1 17 61
55 1 3 80
56 1 4 79
57 1 29 44
58 1 47 95
59 1 1 18
60 1 5 34
61 1 37 57
62 1 14 64
63 1 22 77
64 1 12 85
65 1 21 33
66 1 41 66
67 1 7 98
68 1 43 72
69 1 4 35
70 1 8 17
71 1 1 75
72 1 10 23
73 1 2 28
74 1 82 91
75 1 26 31
76 1 52 59
77 1 4 19
78 1 7 36
79 1 24 52
80 1 73 100
81 1 53 97
82 1 45 93
83 1 8 19
84 1 37 98
85 1 40 69
86 1 63 80
87 1 7 84
88 1 2 51
89 1 51 83
90 1 35 47
91 1 70 78
92 1 87 94
93 1 56 88
94 1 29 46
95 1 5 88
96 1 15 74
97 1 75 95
98 1 16 18
99 1 55 73
100 1 27 66
101 1 50 68
102 1 53 85
103 1 30 62
104 1 10 13
105 1 60 81
106 1 28 92
107 1 6 55
108 1 49 60
