# Generated from readdy-to-lammps

1005 atoms
726 bonds

10 atom types
1 bond types

-30.0 30.0 xlo xhi
-30.0 30.0 ylo yhi
-30.0 30.0 zlo zhi

Masses

1 1.0
2 1.0
3 1.0
4 1.0
5 1.0
6 1.0
7 1.0
8 1.0
9 1.0
10 1.0

Atoms

1 1 8 -16.09144720242426 -9.987488954683565 -12.000660356038404
2 1 8 -15.952894527317746 -8.949279160752061 -14.15188468369733
3 1 8 -15.836653944225606 -9.476873726266362 -15.186938979959814
4 1 8 -14.550501324268827 -9.057297750102853 -14.494721168409933
5 1 8 -12.7642928949025 -9.151579031218539 -14.700707799334811
6 1 8 -11.816328103272438 -7.8104258516137355 -15.22125859478859
7 1 8 -12.801545097587114 -6.429912313935787 -14.199324234975952
8 1 8 -11.708851614740803 -5.263767069809919 -13.517520964521594
9 1 8 -11.983614155230457 -5.146091908704015 -11.556113442371915
10 1 8 -12.19868958242316 -5.739803465083658 -10.212473265842904
11 1 8 -11.452173504628913 -3.6774780799721474 -11.112819946310708
12 1 8 -10.140753024902295 -4.218371745754427 -10.502572696532443
13 1 8 -9.195176782139622 -5.332984941195283 -10.616694763877502
14 1 8 -7.7725884640301475 -5.792380107132586 -11.777402201794816
15 1 8 -8.283587446591339 -5.364814390801838 -12.975364853299254
16 1 8 -7.095890212241579 -5.884046688080421 -12.849191226475352
17 1 8 -6.656003634095311 -6.029654091434377 -11.827263802303642
18 1 8 -7.519260176038697 -7.474585706034389 -11.60701092786451
19 1 8 -7.3518559025834165 -7.026512892930534 -10.364003197341065
20 1 8 -8.804366646569955 -8.41808436881388 -10.399616361008098
21 1 8 -9.341088555418509 -9.739842710810901 -9.871440495915255
22 1 8 -7.978492098725076 -9.4382381397233 -10.147038713894025
23 1 8 -7.691332745329613 -7.917776042105947 -9.36326325793518
24 1 8 -7.663402043679093 -7.590015926582105 -7.600432935439827
25 1 8 -6.772996802562477 -7.972328279952937 -6.759213103662412
26 1 8 -6.6038823039357775 -6.279322498081286 -7.022565349672386
27 1 8 -6.003515566278985 -7.05466406705229 -6.766595935759365
28 1 8 -4.717504606009931 -6.25357615122616 -7.453538115007945
29 1 8 -5.490526894066021 -7.179564342249262 -8.307860722599292
30 1 8 -4.51576582228078 -7.8805736653897895 -9.189768881181104
31 1 8 -3.9657234716150462 -6.703054996230265 -9.447820862977075
32 1 8 -4.017984151299809 -5.229265887741793 -9.613578500679711
33 1 8 -2.65329600508115 -5.563070708117148 -9.571599707202461
34 1 8 -2.2932639237268373 -5.946134531409885 -8.502274705516282
35 1 8 -0.8797816286735421 -5.693972405546745 -8.043464890725506
36 1 8 -0.4919070836997263 -6.710368734211526 -9.613158785202323
37 1 7 -0.5113582353113014 -7.463425826209504 -10.583719230734397
38 1 7 -1.1661755440111043 -7.453529255152687 -11.6522574356491
39 1 7 -1.8608021574829854 -5.693971351875279 -11.776670006120286
40 1 7 -2.4667814789539158 -7.944936271479669 -11.837930131996318
41 1 7 -2.755074633541288 -6.942075480479119 -11.086254262439745
42 1 7 -3.2811491131911663 -5.466922951785246 -11.17682827884333
43 1 7 -4.22561771564498 -6.080025511809558 -11.919889947047738
44 1 7 -4.093705653069008 -7.080416567127518 -13.876256118004736
45 1 7 -2.9393207362812555 -6.830026735294519 -12.96108112297617
46 1 7 -2.849495053725129 -5.375380979490639 -13.889829781160401
47 1 7 -2.6326075589679565 -4.144812410999989 -13.959228956464347
48 1 7 -0.8148254806174404 -3.159326362269009 -13.683767893290849
49 1 7 -1.0481873779077224 -2.723992198527942 -14.639787005296029
50 2 8 1.918025624933407 -1.3949378230697969 -3.5677851759531793
51 2 8 1.2267050266797759 -2.2923661679837704 -2.331888596264206
52 2 8 2.719458437102692 -3.097774588359807 -1.0191050821431096
53 2 8 1.2936844199355744 -2.919104224736962 -1.0060223863855804
54 2 8 1.5840528930370525 -4.585466515868912 -0.18923780459040707
55 2 8 0.727324010379614 -5.433774159574158 -0.31683312574085937
56 2 8 1.4429093505925539 -5.771165306732233 0.5219424491349088
57 2 8 0.11886269870433652 -6.011625509480536 0.8829625067791196
58 2 8 -1.0138708104111576 -6.131127794935357 1.8391384123100598
59 2 8 -0.5775665681633453 -4.750548415555538 2.675854475840135
60 2 8 -0.7238253784175823 -5.070296958035947 3.8251597944013724
61 2 8 -1.8560360010109842 -5.0801895202408405 4.722709005955613
62 2 8 -0.4967017797066002 -3.2940998240311954 4.330714668859522
1007 29 8 -1.6107020295185612 -2.7882175886125373 4.42478932559411
64 27 8 -2.208858526001122 -2.9045828775860936 3.30894673980596
65 27 8 -2.051285770515126 -4.320899683467178 2.3108107514558913
66 27 8 -2.5162056958274372 -5.758771066976069 3.3021230141510403
67 27 8 -3.239284843817698 -4.893201188832252 2.4106958488940644
68 27 8 -2.744276961370153 -3.962207300220653 3.34122715505297
69 27 8 -3.7897518083401636 -3.299015151500797 4.68376118992631
70 27 8 -3.105548101362568 -1.8446407971962424 3.762998114880162
71 27 8 -2.4002295237584557 -1.3837599609005036 4.656155299285773
72 27 8 -1.7726488897725754 -0.6086875815464564 4.88884556891733
1009 29 10 -2.114191424692901 -1.376243711822577 3.4873703672138814
74 27 8 -2.219392487621302 -0.22583337881238164 2.9372246347326043
75 27 8 -2.4321849500326786 0.4914320362497136 1.6202539216201124
76 27 8 -4.063502352029922 1.342723215856457 2.063561464476247
77 27 8 -5.045424656282243 1.8260343101054668 2.1655983248578976
78 27 8 -5.15565488318316 2.063154343152586 3.7325415526562926
79 27 8 -5.128112759776759 0.7561273284370779 4.248227470750886
80 27 8 -3.9537389721795746 0.040585729211314106 3.8464080485219205
81 27 8 -3.0122206125449 0.5532488195300863 4.071361174486856
82 27 8 -3.2030979050262527 1.911232425835123 3.0363684535377904
83 27 8 -2.6712546264497483 2.702216802175665 1.7029636490932605
84 27 8 -1.7644941681141517 2.3184946360515855 2.5799314845612003
85 27 8 -1.6450344408131918 1.9254926802485115 3.6342527060420196
86 27 7 -0.5336655979169792 1.5348445679389677 3.5467352565734527
87 27 7 0.37354822147655364 1.0617532615239615 2.0936068318770737
88 27 7 -0.6846137152170783 -0.06932028151139202 2.57475345763205
89 27 7 0.4019620184947184 -0.9226667974611046 3.0713896379550634
90 27 7 0.6280349799106575 -1.5094747697932833 1.779347655801573
91 27 7 1.5651122931231771 -0.04564290635901891 0.5318208993554403
92 27 7 0.6396215809929047 0.524639510088749 -0.1917616702354704
93 27 7 -0.4439683387225015 0.9546226792141279 0.4385508022342995
94 27 7 -1.6463901358062158 0.8251518120465008 0.8074560979749555
95 27 7 -1.4059713360949122 -0.5101606799138888 -0.37600381138188665
96 27 7 -2.078625325397951 -0.5861897747640761 -1.7105474894888149
97 27 7 -0.9011188420737903 -1.4394133245332366 -0.8560093412375509
98 27 7 -1.374180881740391 -2.7019237908435243 -0.5528827762480417
99 3 8 -2.5201783284786705 -6.508320585945023 0.13581837134622873
100 3 8 -1.567433399064693 -6.82937715688391 0.7299502951630595
101 3 8 -2.3228178619586535 -6.468289220211597 1.8344747599138034
102 3 8 -2.6040991161498837 -7.260307494061798 2.6652208867732576
103 3 8 -3.2366748809947437 -7.630675692447579 1.7697156867615031
104 3 8 -3.9778494942457563 -7.622779272637877 0.9736280495251196
105 3 8 -4.559751835133809 -7.991688018148628 -0.46548308690916457
106 3 8 -3.357239821456396 -7.1520979466405015 -1.9095155054484276
107 3 8 -2.313987811376744 -6.840873440713919 -1.9976516944266471
108 3 8 -2.920419890740845 -8.682266739607241 -2.245362087823972
109 3 8 -2.5331462715043735 -9.498815132613396 -1.6106158465436378
110 3 8 -3.8546138059559896 -9.904210042356572 -1.9374842746259855
111 3 8 -3.6132130429604956 -9.741619313976996 -0.253113152703097
112 3 8 -3.3338873104757805 -10.850901845039868 0.8457116073178086
113 3 8 -4.063538066320438 -10.835315085122208 -0.1411181309113077
114 3 8 -4.55148476557511 -11.741375942310091 -1.0525311312715397
115 3 8 -4.5228901448790255 -10.779013372803263 1.2095363566949058
116 3 8 -4.673635817270435 -9.632169643490654 1.4512273168127965
117 3 8 -3.436565128716383 -9.981594158585732 1.4391263273754453
118 3 8 -3.9670597876579143 -9.091707349139364 0.7668414623734628
119 3 8 -5.330449125944478 -8.604694748819616 1.831961737674968
120 3 8 -4.165856977835843 -8.683729793631372 2.716116295957388
121 3 8 -4.2137629794134535 -7.5618905926806255 4.1416029387008235
122 3 8 -4.7629399262136545 -8.884224904773342 4.441409667516601
123 3 8 -3.989611756024962 -8.08205064220904 6.24424829794758
124 3 8 -2.482790155386976 -8.607648151966371 5.043977727297712
125 3 8 -1.8354205864284077 -8.102735349308459 3.4517636072453852
126 3 8 -2.3128826111608545 -9.641716270150274 2.031938157374219
127 3 8 -2.318940030976403 -10.03384781257226 3.008212926329927
128 3 8 -2.667719626470878 -9.409076240545135 4.164544592416983
129 3 8 -2.7898279442536738 -11.075956851433668 4.321109571083571
130 3 8 -3.975306204613776 -12.30441422450305 3.449616062351463
131 3 8 -4.670379755798654 -12.991437882654012 3.0595992312888276
132 3 8 -5.965733235188151 -13.368337531499703 1.8451615085480646
133 3 8 -5.649902705010208 -13.311723024236152 2.874590246631973
134 3 8 -5.562929150395643 -14.48111883539274 1.3401915404574216
135 3 7 -4.890145498039028 -15.60804389339493 1.4855762185161179
136 3 7 -3.8481786745850126 -16.04084455212019 1.502337330584557
137 3 7 -5.037818685802764 -16.04947179291857 0.1508837139130045
138 3 7 -5.409641815490488 -17.381887921267406 -0.9535883706988212
139 3 7 -3.9640439009322868 -16.297513252314598 -1.5923802991622253
140 3 7 -3.173996992822418 -15.842738626586634 -0.9543864331456285
141 3 7 -3.793585702871702 -14.724134796793573 -0.7916728762527978
142 3 7 -4.043429757883143 -14.408853380745601 0.8155510700836393
143 3 7 -2.909074856045976 -15.062251766331 1.784620491914078
144 3 7 -3.041463403052462 -14.478021470503666 2.783424481054446
145 3 7 -3.3388632329579417 -14.242409900987578 4.090441264196113
146 3 7 -2.980461360812505 -13.139163634088645 4.4597419749127765
147 3 7 -2.4288034884929686 -14.636096907470142 5.70938440102094
148 4 8 -0.17411040904778377 12.602390896677237 16.019537517892946
149 4 8 -0.576026980957136 10.861495337730062 16.591734116105137
150 4 8 -1.0199375037519838 11.599177652436238 17.291138416954443
151 4 8 -0.7543206101403964 12.13152442888495 18.068265218497135
152 4 8 -0.7051144857830708 10.425201336054862 17.6697284199402
153 4 8 -0.4407008802536777 9.769948234755285 16.431606571217873
154 4 8 -1.7647502785184115 10.304297882141164 16.865576683063246
155 4 8 -2.9124515457397537 8.887376647908535 18.044503602530376
156 4 8 -3.849810770396306 8.323760891629274 16.792703594839598
157 4 8 -4.874813515155124 6.93365346947158 16.837691769543294
158 4 8 -2.938729456071715 6.136981072840572 16.61593899739676
159 4 8 -1.7063181478392286 6.78257341306207 17.43477069436224
160 4 8 -2.5907358553011535 6.440425492668492 18.290541515647845
161 4 8 -1.1990336635208825 5.577918323129033 19.407745793710923
162 4 8 -2.4526331454790653 5.929964267007644 19.77549558693498
163 4 8 -3.5255901555849967 5.790268640393927 21.08987277751149
164 4 8 -4.480391881972222 5.9382678436718646 21.970121750503846
165 4 8 -5.5532595556322 6.838299052348977 21.353898638057956
166 4 8 -6.666120412083527 7.044413255553107 21.442201974474614
167 4 8 -5.39894773814752 6.509356746650959 22.43609896242459
168 4 8 -5.876204401059405 7.537530210196233 23.06266136451048
169 4 8 -5.428634009150461 6.995529167399537 23.83726268247183
170 4 8 -5.872884417465283 6.573865458856898 25.636111597120426
171 4 8 -5.242206773550212 5.199765570904645 25.262669300832453
172 4 8 -5.238348271666512 4.413730419062489 23.882499059193655
173 4 8 -4.357020693545675 3.2400654050289788 24.486874987943576
174 4 8 -4.25909708441485 2.3941016031185933 25.27867135168146
175 4 8 -3.4889294617679254 1.6870022571357906 25.61459567802924
176 4 8 -4.227874404973568 -0.15980988378924604 25.114194634159695
177 4 8 -4.8908847951145455 -0.6137649415739252 26.393474156105263
178 4 8 -3.0762716432986426 -1.6261448533361682 26.281365253354675
179 4 8 -3.8055157096110364 -0.3587501407762253 26.344917754776386
180 4 8 -4.634990622724666 0.5615086523110104 27.478980361530535
181 4 8 -4.572150329803437 -0.6075082239567241 27.557103967466585
182 4 8 -2.9149559236267835 -0.34797451414933184 27.758894298638463
183 4 8 -2.139049272705034 0.07891002681142734 26.206905318816176
184 4 7 -1.2514885485478895 -0.09312038010573853 27.02730490863096
185 4 7 0.7461895063959532 -0.08971768151367635 26.659771585002257
186 4 7 1.0451812304835193 -0.8249085364616412 25.507220254243723
187 4 7 -0.5160552460607608 -0.662317217188917 25.845561291714613
188 4 7 -1.4439033005291917 -1.1451165459557897 25.486731005406202
189 4 7 -1.1142069041072953 -2.247348015888361 24.83808550323734
190 4 7 -1.5843763680663343 -3.3935312804167124 23.92402628911438
191 4 7 -1.2450513211631966 -3.3215949249540415 22.111623738890245
192 4 7 -2.0394596682551387 -4.460732087045741 21.606183746993946
193 4 7 -1.2676545303664815 -5.2427872921329275 22.720415667955454
194 4 7 -2.5679868525382035 -4.742260767767174 22.76122912674112
195 4 7 -1.212178961771768 -6.459609555928141 22.66888248606314
196 4 7 -0.9940671835588528 -7.96749549906509 23.19865593511077
197 5 8 -1.0606870672227426 -4.761251546082615 11.82499141062237
198 5 8 0.27984896350962635 -5.510908768052346 13.046536777013053
199 5 8 -0.3250501989553379 -5.356732493389196 14.153173394329107
200 5 8 0.8359725069698034 -4.561109040962131 13.784768439144383
201 5 8 1.7479783708555492 -3.043928032347937 14.676843616962087
202 5 8 1.5730815389994264 -3.5528037928016185 15.80906058661442
203 5 8 3.2411145355650643 -2.9938623071691617 15.954411217064655
204 5 8 4.363322364319382 -3.9426024746974377 16.127190187505434
205 5 8 2.4422788145999714 -3.081786757410664 16.812639419900314
206 5 8 2.722682084466564 -1.3689517228512558 17.06373777301694
207 5 8 3.6844068423543708 -1.4872195650962858 15.75852768915263
208 5 8 3.8924920063445314 -2.4998241583864518 14.66769337386815
209 5 8 4.04808998017401 -3.336747890632557 15.159646981487297
210 5 8 5.457971608713813 -3.024668236377814 15.269878408212973
211 5 8 5.951702402890851 -2.2674857921415126 13.796990088120637
212 5 8 6.757653673605771 -2.8273790979338336 15.370724704757334
213 5 8 7.97688217447382 -1.6609798263784583 13.506144573388923
214 5 8 6.441527208609465 -0.40984760335923925 12.711926457533645
215 5 8 6.52031579892847 1.1982958438291622 11.715910760490255
216 5 8 6.69978378305078 0.485388410801273 10.782297584857323
217 5 8 5.503035234083256 1.3337436665969005 11.852674220460173
218 5 8 7.017345718219099 2.04938456728394 10.238966184828598
219 5 8 8.600155936216568 1.7041290210956075 9.812297103164349
220 5 8 8.473792808509979 1.0310821828003884 8.55122246482717
221 5 8 9.51814345572598 0.6559571469326504 8.630045684839992
222 5 8 8.086371445399548 0.08622493589622517 8.688707806215925
223 5 8 8.330051929864581 0.8588168986592826 7.194292116273546
224 5 8 7.266861146140251 1.4826760464343895 6.305922028574069
225 5 8 6.811298717230394 0.5633335663349106 5.470425715634983
226 5 8 7.937056889375064 1.6942589458805228 4.833587021998585
227 5 8 7.313425006158406 2.245077617634939 3.4828782767985276
228 5 8 8.417274380237988 1.7019003151853342 3.720169521344304
229 5 8 8.683674042442574 1.6436546429042223 2.6115516319963663
230 5 8 8.981658085289704 -0.1657163856711528 3.620099985267363
231 5 8 8.159918298134777 0.4697219808120489 3.3293907309650845
232 5 8 7.711722827678814 -0.2675256788020288 2.2951576771050437
233 5 7 8.170295751762966 -0.7622170682523168 1.3331182028901396
234 5 7 8.351321120781607 -1.9028473172688054 1.868592986595161
235 5 7 8.070529512973495 -3.2201642775150527 0.9121357960179549
236 5 7 8.788650213509008 -4.336992165757447 1.3761622240522322
237 5 7 7.181237915135037 -3.7456859725130656 1.8594759276784378
238 5 7 7.375372855510556 -5.498601323573026 2.9393631040785118
239 5 7 5.794545307710396 -4.884866733420455 2.461316749926597
240 5 7 5.080585518402141 -3.622470852470642 1.9210352857362063
241 5 7 4.475683674651586 -2.772667262572462 2.2161710856768937
242 5 7 5.40157410230718 -3.324131662915086 3.430287182963596
243 5 7 6.3807593979626915 -3.089980798950045 4.416716684793948
244 5 7 7.390649600609745 -2.0600359951061615 4.67509918627628
245 5 7 7.2257745539745555 -1.6691910412216666 2.773182283943709
246 6 8 -1.523165984181645 3.2732495128169687 4.718344778881614
247 6 8 -1.9447095659353018 4.397989336285076 5.625066222134083
248 6 8 -3.248451392802567 3.316024207029821 4.460505452808274
249 6 8 -3.323086351344413 3.3357340338163612 2.621153563720798
250 6 8 -1.9094307866069322 4.444928825967683 2.5116011171897235
251 6 8 -1.1488207366613215 4.073100871072139 3.4979551916482015
252 6 8 -0.5434466786868294 3.329528214882184 5.320338323752507
253 6 8 -0.29826947236583584 4.163643789535464 4.378287692697348
254 6 8 -1.61165642908617 5.2848012359125836 5.927466205585767
255 6 8 -2.7506879181803714 4.62110488831708 6.390455550770854
256 6 8 -1.1055497596468995 5.222696181121149 7.617601155930663
257 6 8 -2.388879831367035 5.034506384032106 7.7099318084134305
258 6 8 -3.0644640249849133 4.789812914176577 8.851928221343586
259 6 8 -3.846695807949806 5.741135461908499 8.387365830788035
260 6 8 -5.210928401585851 5.607890475253246 9.320617699805224
261 6 8 -3.953035906611194 5.744077821666659 10.123764636437967
262 6 8 -2.6357983460753536 5.926040955514088 10.08554483184205
263 6 8 -3.0342798677258545 4.948206320974964 10.138588548742142
264 6 8 -2.9634816585669452 3.680489756981786 9.539901413629465
265 6 8 -3.802262780698709 2.3996235417553784 9.191781567823073
266 6 8 -2.9670742622836492 1.8536928924202116 10.784834496148187
267 6 8 -3.6553551601450716 1.1584590051688124 11.947025336276026
268 6 8 -4.032444768210834 0.45861477558399216 11.255864588464291
269 6 8 -2.7983388009924637 0.6888892087406199 10.969495686986674
270 6 8 -3.1220687669137486 -1.2722064954022663 11.717707296150795
271 6 8 -2.4905168787786627 -1.4634756179081407 12.865632439724989
272 6 8 -3.343354459414388 -2.2099045418040864 12.038914823859573
273 6 8 -4.0945136144333905 -2.9696132926417 11.422816538909474
274 6 8 -3.9311464277161203 -4.165333889779552 11.789773682872202
275 6 8 -4.555143392514487 -2.8243498613615756 10.377459602256833
276 6 8 -3.7290218815699125 -2.3741916515755634 9.409201671034813
277 6 8 -3.194349725268368 -3.2512769532801613 8.93353418637233
1012 29 10 -2.274619015959104 -1.7363403473454992 8.36589789966533
279 6 8 -4.08624809272598 -2.4157326395301792 6.61162446871987
280 6 8 -4.747193562230035 -2.0758126063343076 5.520266813205678
281 6 8 -4.732992198891801 -1.995987180119654 7.608378845831138
282 6 7 -5.057640143476693 -3.24886923919399 7.701916564621994
283 6 7 -4.960660533783562 -4.6833318271361195 7.248192952791427
284 6 7 -4.996423676307229 -3.1785313721813604 6.738621586321924
285 6 7 -6.781111473045718 -3.391871565383299 6.482135584261649
286 6 7 -6.865213258069804 -4.183534152201947 7.533197355963475
287 6 7 -7.063208314093082 -5.2462383837080635 6.236824880166284
288 6 7 -6.22926121756734 -5.411054996084834 6.752362268648765
289 6 7 -7.528879438003313 -5.643066141402987 5.395238524640522
290 6 7 -7.902259856473481 -6.585471300408131 5.57788337791692
291 6 7 -8.757302230998109 -5.260577175534877 5.075014384198134
292 6 7 -8.282320487401645 -4.510908791987847 6.122772873494208
293 6 7 -8.323889975712236 -3.370259662241822 5.364075637227887
294 6 7 -9.269151429932272 -3.111870234539362 5.825645046440102
295 7 8 3.191652573046039 13.718782034027877 5.460352768476068
296 7 8 4.0636120915419225 13.358829662247766 7.233632317273738
297 7 8 4.218214906008716 12.367949705400862 8.328145523281425
298 7 8 2.821428815056428 13.308773787956797 8.971406178167783
299 7 8 2.8205965602469876 12.92894440676222 7.201798472873834
300 7 8 1.339061982473587 13.351410781331836 8.273186364690739
301 7 8 1.263831319204589 14.029550136693407 9.071766417175334
302 7 8 0.9721011054807485 13.35827664582466 9.764350193930769
303 7 8 0.9567679117656852 14.515776348018377 10.863100020695247
304 7 8 0.5804371761961908 13.334355605064959 10.855980212340548
305 7 8 0.7606932315495243 12.578042613052537 11.625725311103439
306 7 8 1.7516435672926132 11.35476295063175 11.949461975144148
307 7 8 2.4177686535291403 10.554074428981135 10.967533133715213
308 7 8 3.4230361074480813 10.42767064301974 10.668477845002933
309 7 8 4.538771346071761 9.789053593584573 10.071604244484986
310 7 8 5.058636675797462 10.710109151470938 9.281358810453868
311 7 8 4.786880854253941 9.731437980155455 8.001760760600227
1011 29 10 5.046675438321351 7.985919188345886 8.886135877572046
313 7 8 4.43357275382466 7.347776154632649 10.005805982612921
314 7 8 3.895240307993544 7.444675658274393 7.971715647012342
315 7 8 3.6408047458541186 6.6124084404130725 8.960641145087859
316 7 8 4.292599692806926 5.992400518130779 8.423136504136371
317 7 8 3.011368447123613 5.102191166005287 6.951149128314492
318 7 8 1.7058929579125575 5.338867551236921 6.984522621795291
319 7 8 2.3056083008444364 3.833116290407353 6.522870854129794
320 7 8 2.042871978732175 1.9009846779655217 6.716160410201744
321 7 8 2.163141340118272 1.101860027538849 7.655979920420883
322 7 8 0.9909731860798796 0.846614794733342 6.613631473130642
323 7 8 -0.46440436935464785 1.6277243930002463 6.396513985606303
324 7 8 0.6437434438606543 2.63392801354276 6.920972265848502
325 7 8 1.2621947448320594 3.035818132478543 7.737822620590982
326 7 8 0.9931284710301669 4.051996024528748 9.586082804513795
327 7 8 0.7974603471021651 4.630153514117626 8.45447236688861
328 7 8 -0.36995755462081276 4.393072568597722 8.713552692125441
329 7 8 0.5120725554699674 3.5664082409467297 8.455467670061706
330 7 8 -0.08108197259613488 2.8925107820202265 9.655104323322414
331 7 7 -1.4519981338101795 1.8591034097935628 10.464677073877072
332 7 7 -0.23887095646536466 1.3324301008360766 10.132376678645667
333 7 7 -0.25976426342669384 1.471009459152754 11.893647347453003
334 7 7 -0.25234240489837445 2.385005249438937 13.208692793097308
335 7 7 1.3855191899347465 2.271710036370402 13.388929522876728
336 7 7 1.3909393346862644 3.9571821523132735 12.932867029504301
337 7 7 0.06746098544768465 3.879952741697095 11.976694854184506
338 7 7 0.6896180564525937 5.08111917936783 12.08523148901685
339 7 7 1.4002313948661949 5.56999082450221 12.872182611408592
340 7 7 2.2120390442916382 5.308350090405461 14.033303421725602
341 7 7 1.3259203538753792 5.397761680696312 14.951568127432383
342 7 7 2.583634412006519 6.309083017748898 15.8402909048983
343 7 7 2.6790070002641873 6.120930112453619 17.09534723845908
344 8 8 6.586724486518852 19.02560909996707 -9.319246028089077
345 8 8 6.806183653385656 17.891999969677272 -8.030908620519217
346 8 8 7.181568709736903 16.79907549599809 -7.248836931129679
347 8 8 6.6323492278171825 16.448706420689987 -8.267784373253093
348 8 8 7.721994407577868 17.198809853294666 -8.694459869435658
349 8 8 8.553200629779806 16.97147538787175 -9.648797358502195
350 8 8 7.347253407903103 15.517897225353982 -9.204903559731878
351 8 8 6.842754355330815 15.567741212844943 -10.07615753133909
352 8 8 7.290891997246503 17.363095729866885 -10.488678590386359
353 8 8 6.560495189810079 16.00296370456519 -11.134480415213332
354 8 8 5.674101339373395 14.660566658243228 -11.372775448854794
355 8 8 6.844189675585747 13.701205033569973 -11.726382512950169
356 8 8 8.088260152912891 13.480945078785616 -12.128530867144669
357 8 8 8.706437638846253 12.163415831406478 -11.652667647440326
358 8 8 9.096545847204935 11.723111960126692 -10.219655572407992
359 8 8 10.154992158781662 11.735545889624643 -10.862529044958896
360 8 8 9.648507508389411 10.354611549572505 -10.65817858201798
361 8 8 10.520047744154343 10.01504365397119 -10.959753641800777
362 8 8 11.551701299218365 9.315264853070262 -11.561066551114164
363 8 8 10.444498381865962 8.986082055834192 -11.40414601696823
364 8 8 10.278895320616265 7.965734294957793 -11.577871889444165
365 8 8 10.341871911873303 6.033210381081497 -12.649564296845243
366 8 8 10.055088243699014 5.227071222941462 -13.766631821759422
367 8 8 9.063634935720778 4.043234341767311 -13.842043997193054
368 8 8 8.751714594380422 3.5080975431316315 -15.066066347310096
369 8 8 7.524145042240439 4.678006821648244 -14.928085315756695
370 8 8 9.230160338322488 4.913282325562246 -14.784365928599621
371 8 8 9.55122734521737 4.567346475910749 -15.924574909983273
372 8 8 10.532466340770876 3.8607029704453835 -16.069758683159755
373 8 8 11.569155945104328 4.05075488569494 -16.328215607222994
374 8 8 12.743791105189631 2.9541479423611263 -15.781164676455994
375 8 8 11.825394628327961 2.1720332471174806 -16.80931234975921
376 8 8 12.584272883627804 2.1709836070351525 -17.982648619773247
377 8 8 12.125774386673871 4.095003405665379 -18.136320547945886
378 8 8 11.855008442580091 3.8291626179129588 -19.885280370430234
379 8 8 13.309308464092988 2.2233758800265746 -19.773847595282962
380 8 7 12.899970758539023 1.286829531996908 -19.558743002171386
381 8 7 14.012773554583893 1.3670346438049459 -18.7453365548378
382 8 7 12.964017322516618 0.18566740962764677 -18.969753501023476
383 8 7 13.72870149120437 0.14622996624360743 -20.122242646056137
384 8 7 14.866958626258233 0.11909116297494249 -21.641123218700773
385 8 7 14.644549950874884 -1.3314087643328358 -22.263511861779953
386 8 7 14.686658917986222 0.29841658389780873 -23.153321800390376
387 8 7 15.816623090523894 0.7410770515960746 -22.25486157069344
388 8 7 15.764231109815873 -0.3905932946553435 -22.27953206595319
389 8 7 15.921340299947529 -0.4865926540894446 -20.774644747623377
390 8 7 17.542921705637568 -0.6944779317026268 -21.848132274587186
391 8 7 17.681061084625323 0.8315921739032137 -20.86586528970217
392 8 7 15.711573707532972 0.3525279360305066 -20.043458998937353
393 9 8 -5.450315182497603 -5.32834766252728 -14.17642392745257
394 9 8 -6.6769718819697115 -4.984287594594498 -14.94584258438957
395 9 8 -6.5328412503775395 -4.386438343976247 -13.686445630085116
396 9 8 -6.941051668371902 -3.415568016875233 -13.942110569661548
397 9 8 -6.459735483633446 -2.1712639617333815 -13.624782824176048
398 9 8 -7.157757575251247 -3.003868036174757 -13.062607592124174
399 9 8 -8.564903057443832 -1.6419258703997135 -12.015473033967687
400 9 8 -7.274409629672826 -2.040967170236965 -12.243010761611787
401 9 8 -6.285002192934477 -1.17999760260022 -12.645007247059096
402 9 8 -5.083840548371917 -0.3895694608710735 -13.412514721423397
403 9 8 -4.3210677859907305 0.113828955293794 -12.782398636377941
404 9 8 -4.417147986025682 0.5731204619991263 -11.711436986392062
405 9 8 -5.7432278839984585 -0.055521701684484774 -12.276292011275668
406 9 8 -6.110440755865417 0.8045137042889936 -11.498043874000306
407 9 8 -7.868951382443738 1.7512706365011759 -10.668193455951318
408 9 8 -7.287198594774818 1.7939290635391383 -9.434838962919295
1010 29 10 -6.168620047136186 1.8911677824719606 -8.646718483340647
410 9 8 -6.316503802534687 0.5128507322063185 -9.464212721886321
411 9 8 -5.057994790533598 1.1658483984352703 -8.900857135176587
412 9 8 -5.016698531340124 0.0814727308357473 -8.577733917225057
413 9 8 -3.2719518159700183 0.3476843394127402 -8.578640757105127
414 9 8 -4.264124867751366 -0.26780684643154773 -7.502011047711093
415 9 8 -5.717524888062054 -0.7496085143028055 -7.336727559239743
416 9 8 -7.106506737646133 -1.019324816896323 -7.657684871455818
417 9 8 -6.514378811718587 -0.10751519927244535 -6.748708624334327
418 9 8 -8.014279316382114 0.013562952397093478 -6.5868987294916685
419 9 8 -8.93816944921026 -1.2194928956254434 -6.326409483654642
420 9 8 -9.758732108110129 -1.6772948518573947 -5.512623130813509
421 9 8 -10.670890368043262 -0.9980803097118225 -5.712449201449591
422 9 8 -10.935507300298237 -2.0147942726237926 -6.090395617613229
423 9 8 -11.527941876250589 -4.0579538144685525 -5.564737443215846
424 9 8 -9.851462117862154 -4.608567111750744 -7.238687069204273
425 9 8 -11.272438794375581 -4.5920495900971545 -6.657545330835167
426 9 8 -12.7086730621778 -3.728282004686669 -7.3497792863393
427 9 8 -12.678171867059605 -5.4781109079104695 -7.5895157000380165
428 9 8 -12.692825488421601 -7.390018124712437 -7.273297711035261
429 9 7 -12.88517536997689 -6.958250364457158 -8.51548032970725
430 9 7 -13.919324560192829 -5.403811747795884 -7.94928339937278
431 9 7 -15.28626701017004 -5.6733591903830325 -6.930182562237691
432 9 7 -14.654022141555881 -5.8121651620614 -5.235343680163205
433 9 7 -14.346614866869333 -7.435479633629188 -5.042554621409884
434 9 7 -14.607548983569295 -8.687086109353698 -6.102319162619629
435 9 7 -13.922118679114972 -7.668887073055636 -6.469207144420438
436 9 7 -15.119620163173222 -7.537284776813803 -7.285908323374879
437 9 7 -14.669178672298042 -7.1240609029947075 -8.717563720178184
438 9 7 -16.452002754677725 -7.001503778733177 -8.096450156224712
439 9 7 -17.737770889537362 -5.949325587605555 -6.786339417937729
440 9 7 -17.073498673288636 -6.784643013444798 -6.152007034023605
441 9 7 -17.272362441567147 -5.6977720792502184 -5.131962473255676
442 10 8 -0.35197925234156974 16.57781436943002 -0.7792298732006282
443 10 8 -1.3095045814018114 15.819083002506957 -1.3959879963123378
444 10 8 -0.503902343308625 17.18549662611737 -1.9409200215325368
445 10 8 -2.0150236723235593 17.593649891750502 -0.7946713410995062
446 10 8 -2.7720123586970646 15.777487926031124 -0.8925148039611034
447 10 8 -3.661434626184299 14.723906671121945 -1.2295450514473127
448 10 8 -3.0125638568206474 14.398629375211197 0.5331285053706536
449 10 8 -3.219969920073516 13.605966319306146 -1.0574993583229306
450 10 8 -2.014346406665019 12.756282017925122 -0.49767096209400224
451 10 8 -1.4712578650085952 11.867525621016714 -1.570529771428358
452 10 8 -1.5556919400003975 11.898650329611527 -2.822827142093667
453 10 8 -2.4940850161290298 10.749452151412173 -1.5529130804755344
454 10 8 -3.5804083767936907 10.619199142768277 -1.9594167518129881
455 10 8 -3.6223698199546703 9.478353283044546 -2.06879423557401
456 10 8 -2.404414629859679 9.603839749801466 -1.37758980127773
457 10 8 -1.5352356943183285 9.39907646277671 -2.0460401975492517
458 10 8 -1.3799717874733193 9.540685753581794 -3.2358161402095953