# Generated from readdy-to-lammps

1005 atoms
726 bonds

10 atom types
1 bond types

-30.0 30.0 xlo xhi
-30.0 30.0 ylo yhi
-30.0 30.0 zlo zhi

Masses

1 1.0
2 1.0
3 1.0
4 1.0
5 1.0
6 1.0
7 1.0
8 1.0
9 1.0
10 1.0

Atoms

1 1 8 -16.14554120371247 -10.098852129836953 -12.14989723454369
2 1 8 -16.02651996432067 -8.847947166817931 -13.661571634861431
3 1 8 -15.65442751112027 -8.871040940282205 -15.109662272226098
4 1 8 -14.465960639194401 -9.154152346874024 -14.251341300518792
5 1 8 -12.938107100890816 -9.467021866741824 -14.690581494987844
6 1 8 -12.3547812853964 -7.63628329040589 -14.487637948419584
7 1 8 -13.118553697302053 -5.72968756684214 -14.698951035738585
8 1 8 -12.04146785226387 -4.874667903104928 -13.121442250770922
9 1 8 -11.999443704498601 -5.4324025339544715 -11.283126832968525
10 1 8 -12.499462775358044 -5.819369861556856 -10.172356361160137
11 1 8 -10.884097980001265 -3.41637166030414 -11.03941268379377
12 1 8 -9.90667490994494 -3.939153243554278 -10.685058427077253
13 1 8 -9.207195894007326 -5.094726270085418 -11.16089559505122
14 1 8 -7.86182379462087 -5.231472386887945 -12.455922602540344
15 1 8 -8.413995193153585 -6.02623238613349 -13.519112105049595
16 1 8 -7.205343675818843 -6.426705911420051 -12.65180809858931
17 1 8 -6.0875706622038 -6.358021018165342 -12.21801656553462
18 1 8 -7.273450349846553 -7.170247248839887 -11.650791920299254
19 1 8 -7.881499816269152 -6.955595545887521 -10.419116164674438
20 1 8 -8.872725676183302 -8.796766517511372 -10.218322264857491
21 1 8 -9.012410308512957 -10.066654505083893 -9.826295172388006
22 1 8 -7.775162816758543 -9.466978342481413 -10.52987972038645
23 1 8 -7.847814933847116 -8.16008361359221 -9.36621903580132
24 1 8 -7.533653989498205 -7.785911644760322 -7.591260294728619
25 1 8 -6.800131200091889 -7.374786773277645 -6.644180020180104
26 1 8 -6.306305033486113 -6.560749132369187 -7.895089097732315
27 1 8 -5.575538844472477 -7.413857172222545 -6.936654471227292
28 1 8 -4.738272425516228 -6.507637635759949 -7.598111467823892
29 1 8 -5.050739000723853 -6.820975933770711 -9.05238647708134
30 1 8 -4.738217937557788 -7.748952234075872 -9.376978360011893
31 1 8 -3.9769398800511593 -6.988741626421327 -9.29610792754555
32 1 8 -4.0534482744967955 -5.462881303674211 -8.831669113025733
33 1 8 -2.6250304519242142 -5.604656489292327 -9.765077791968972
34 1 8 -2.348894617224278 -6.124151247343357 -8.53159997207286
35 1 8 -1.0615510024120176 -6.43960044321567 -8.26900758507652
36 1 8 -0.7589047205765248 -6.598534839064333 -9.569125747633871
37 1 7 0.1090429368876036 -7.950177947175683 -10.145395975214505
38 1 7 -0.8945141831581718 -7.913999021074716 -11.691198600074339
39 1 7 -1.959900128582689 -6.796992417397069 -11.973949446708174
40 1 7 -2.531512367957537 -7.640094029038995 -12.377115663969716
41 1 7 -2.529520547365354 -7.128253260528142 -11.080556619416512
42 1 7 -3.585238300449829 -5.972090714825242 -11.447562461637087
43 1 7 -4.45862987499363 -5.81880703266967 -12.462950636838736
44 1 7 -4.534483462989309 -6.137362699394065 -13.8469927556282
45 1 7 -3.3048943511187563 -6.976587436599802 -13.51133502982092
46 1 7 -2.8290208025765304 -5.1239372828681775 -14.481864761577798
47 1 7 -2.0755592430946113 -4.299166498925414 -14.522605027189671
48 1 7 -1.0462144857425182 -3.276505757955933 -13.253943545798938
49 1 7 -1.3050702687293578 -3.1584683780133447 -14.73360422192665
50 2 8 2.2555336576721317 -0.9844202686776434 -3.3987066528483934
51 2 8 1.6837314378111938 -2.1971064905315485 -2.874993689221022
52 2 8 2.7821677025645184 -2.8023462538632953 -1.3337107838002802
53 2 8 1.6000079961875893 -3.0620458198160887 -0.7177480105862291
54 2 8 1.5495783918975599 -4.503180209407887 -0.5584685825472593
55 2 8 0.7991598667969172 -5.41993447629087 -0.5003331827927913
56 2 8 1.194176052715791 -6.238407134092648 0.7326806636742982
57 2 8 0.07194092735492873 -5.982342338403281 0.5641161918925682
58 2 8 -1.3492061695322621 -6.214762701758015 0.9737861758574898
59 2 8 -0.5724940754466836 -5.350954007203805 2.3784201562384673
60 2 8 -0.3708689898577715 -5.535805064594419 3.750139753243961
61 2 8 -1.5541647117235546 -4.841239166701533 4.964375911120492
62 2 8 -0.648093144476085 -2.952297433829699 4.4124896473867
1007 30 8 -1.7498368233543107 -2.8660900617869607 4.306058682500002
64 27 8 -2.146803671354732 -2.854670440656298 3.156866635074263
65 27 8 -2.2845364754991904 -4.00898876238865 2.9863596520511613
66 27 8 -2.863548039764906 -5.987466359830516 3.3053829101194054
67 27 8 -3.5398319527650317 -5.391671023385768 2.3989392223195747
68 27 8 -3.0460276518485605 -3.4706866008095094 3.8484605728231367
69 27 8 -4.011522081223228 -3.168179814106728 4.148581381819326
70 27 8 -2.7265456982976346 -2.4690861291824073 4.1426582232108355
71 27 8 -2.9880417352200377 -1.3412658522377128 4.744296310021978
72 27 8 -1.8470985929198702 -0.23934730625775985 5.043964802161408
1009 30 10 -1.856737572022373 -1.4373576400949757 3.4562274352481404
74 27 8 -2.3849295079697104 -0.31681488278974984 2.8231626505733822
75 27 8 -2.5291525839754283 0.5594554103563052 1.4918881436564548
76 27 8 -3.9229130360615043 1.364312609806328 1.5713621946347291
77 27 8 -4.4343502754853334 2.216846728102323 2.3646663683002145
78 27 8 -5.104051932180296 1.7400394189033834 3.8064340489210795
79 27 8 -4.982094778971048 0.4970899775795498 4.234995648818313
80 27 8 -3.937794234213204 -0.4902698791857812 4.197706925237875
81 27 8 -2.725187162365002 0.36651859412996485 3.8134269121978748
82 27 8 -3.1512784537059626 2.051884466165017 3.1104090538815936
83 27 8 -2.1720839217994716 2.6846448435726455 2.1630882698051854
84 27 8 -1.574670929988524 2.1028061930640667 2.703415140028255
85 27 8 -1.6538075179301963 1.7661327863746912 3.6979256993306366
86 27 7 -0.3579651169525915 1.088965362532461 3.579785437786972
87 27 7 -0.003986443211702856 1.2749283588675309 2.3980247340508902
88 27 7 -0.857234263014926 0.03955304399910388 2.53137696294315
89 27 7 -0.02562233919728168 -1.156258593414514 3.0504902017352524
90 27 7 0.5377628068830574 -1.21540201686186 1.7697408248628304
91 27 7 1.1384627908658689 -0.08373627939054293 0.9660047303889354
92 27 7 0.7582887601258431 0.672248513156847 -0.419184090116137
93 27 7 -0.3086091459158082 0.7042240548427602 0.4654065115441585
94 27 7 -1.3957656234398064 1.0440459033437965 0.21015092650308848
95 27 7 -1.5115936051559968 0.6179254671082103 -0.6924153727429213
96 27 7 -2.3155302860666547 -0.03101109082162895 -1.69783377601479
97 27 7 -1.7768062855871862 -1.4912313042501606 -1.0858241857332
98 27 7 -1.0523631021323392 -2.6625504061230862 -0.37606625402182586
99 3 8 -2.7259633663133527 -6.9469581228311155 0.22838280397018787
100 3 8 -1.6862190608720802 -7.0264284671982695 -0.023106176429156817
101 3 8 -2.62379775931703 -6.571589987161336 1.4389371741564798
102 3 8 -2.3394719510078663 -7.232034522170658 2.3386332406879062
103 3 8 -3.419923868992174 -7.507081012614204 1.8778141926412713
104 3 8 -3.8105441155756123 -7.122149929267526 0.6950437465984663
105 3 8 -4.4560102356088285 -7.839629496482342 -0.4628336601915041
106 3 8 -3.6857535965016974 -6.633100592341639 -1.6921027579784056
107 3 8 -2.649520568235751 -7.495504199969844 -1.9294183041343387
108 3 8 -3.2237112974203943 -8.67896520044219 -2.150887229838997
109 3 8 -2.246579682623217 -9.557392554946441 -1.3488556512106942
110 3 8 -3.3112462624568604 -9.792689300356237 -1.3561169680470868
111 3 8 -3.305763076996893 -9.54151230468141 -0.2922091121809511
112 3 8 -3.1864713903990878 -10.53469499004054 0.7597284120837803
113 3 8 -4.167461430531123 -10.349270836079867 0.06351860634499941
114 3 8 -4.458583866461774 -11.246364315857322 -0.6984227874221932
115 3 8 -4.695532139980304 -10.619499665823058 1.2858354403965195
116 3 8 -5.201107486851413 -9.440089814028438 1.3946267262787497
117 3 8 -3.4837596648117737 -9.2399221588351 1.0146770585087335
118 3 8 -4.442424602513131 -9.070666936527045 0.646233403886213
119 3 8 -5.629533695851277 -8.418567936937064 2.262543923047886
120 3 8 -4.122689478035734 -8.318422552963916 2.789105276731655
121 3 8 -4.703495839772697 -7.634114999031315 3.416978471600475
122 3 8 -4.694648496389131 -9.082066968182122 4.410907267917074
123 3 8 -4.219871232391544 -8.178858857249097 5.519636996223931
124 3 8 -2.723082908927712 -8.195702058069775 5.273978999717844
125 3 8 -1.609632862480288 -8.201467870753447 3.477927603448497
126 3 8 -2.3897920390850795 -9.847153462833473 2.453219763067381
127 3 8 -2.8069933863023016 -10.199376296665402 3.260517337369262
128 3 8 -2.8622944530146905 -9.697769520058603 4.608635569830679
129 3 8 -2.9782221767877566 -11.59343378019687 4.041359816616554
130 3 8 -4.1992156199881325 -11.961101084765458 3.6357664140302752
131 3 8 -4.645949442694387 -12.608630045213065 2.6629954638516864
132 3 8 -5.691908290542418 -13.374550383992508 2.109308810143181
133 3 8 -6.27287032162372 -13.460355849703342 2.8860196269298126
134 3 8 -5.785787820605186 -14.32294959039961 1.067251687095098
135 3 7 -5.0240977141545935 -14.944312343933468 1.134650222614247
136 3 7 -3.984350155677876 -16.51253353669455 1.5712161183913695
137 3 7 -4.922322956371094 -16.004467298339566 0.09247076251965608
138 3 7 -5.4598566943910605 -17.554261291537095 -0.8268029549662963
139 3 7 -4.325497006896758 -16.52422367929808 -1.4598386896715014
140 3 7 -3.344889161535498 -16.113976932187775 -0.39377118225128377
141 3 7 -3.5531520096308964 -14.77329644909311 -1.1269126990604643
142 3 7 -3.7727470270388235 -13.901026903738751 0.6906399094704883
143 3 7 -3.327867057620581 -15.265182122395263 1.532107702546719
144 3 7 -3.255501560878439 -13.969356259620232 3.001618828865213
145 3 7 -3.1595397833722747 -14.482175577695351 4.373132256601396
146 3 7 -2.739320313204456 -13.515861704180614 4.948712456965197
147 3 7 -2.4169333929063366 -13.921725020578592 5.856508183083995
148 4 8 -0.3675794967150911 12.631123706626825 16.2290228784231
149 4 8 -1.1585361280178532 10.584348397135559 16.301545183673852
150 4 8 -1.3929795987393547 10.770847343370317 18.128403421456948
151 4 8 -0.36564963239659615 11.872614370699644 18.379660843837126
152 4 8 -0.33156236285036156 10.865048979066986 17.724831145564615
153 4 8 -0.8013495218646013 9.418742237422306 16.310661367154644
154 4 8 -1.8604028334984588 10.326889396408285 17.23354038227932
155 4 8 -2.640491057434403 8.60187984031497 18.123614718987685
156 4 8 -3.954141505370199 8.262163448256368 17.100815316040563
157 4 8 -4.371753081691054 6.803340797065419 16.85965166429183
158 4 8 -3.1143017574091245 5.8958687424397995 16.739621937870275
159 4 8 -1.4579515239829453 6.406337426208853 17.408941488445617
160 4 8 -2.4726724929635022 6.357089989035553 18.090801046044923
161 4 8 -1.190768214167529 5.19173053464359 19.78306520659667
162 4 8 -2.317035889565609 5.566326759427455 19.051080353441083
163 4 8 -3.4968932474483085 5.751498407030154 20.622694544487516
164 4 8 -5.029801577009319 5.736962004656637 21.69440924680727
165 4 8 -5.8708585632378805 7.247829218844312 21.34467001752343
166 4 8 -6.443157477330332 6.858348041201007 21.996830787327756
167 4 8 -5.027728596949159 6.425525202195782 22.680441290458784
168 4 8 -5.8771826201687825 7.491999521485683 23.08620018479811
169 4 8 -5.730804774530287 6.691658690717538 23.89957790142153
170 4 8 -5.639101804519787 6.600361141752087 25.29242944172225
171 4 8 -5.634211037801392 4.998687576112818 25.060270015627726
172 4 8 -5.286033937463286 4.371745846179483 24.137466624657666
173 4 8 -4.364299623668491 3.115709779196799 24.313978755618106
174 4 8 -4.22103806560807 2.3184611086333264 25.077451621780146
175 4 8 -3.32006268755874 1.0343728632927534 25.369480009081595
176 4 8 -4.325658453359512 -0.11729796942774784 25.220215331080542
177 4 8 -5.110203400531714 -0.20131972536780368 26.53852705453521
178 4 8 -2.787662088896688 -1.1873415812216337 26.335261147815526
179 4 8 -3.7329661743960854 -0.7228295767231651 26.503691572570975
180 4 8 -4.572642495117184 0.7160811619491056 27.397831950605852
181 4 8 -4.599690788176785 -0.5056393970215917 27.622873501698212
182 4 8 -2.814909804233744 -0.023624254987571525 28.171016217786025
183 4 8 -1.8898422667260844 0.1888293293115332 26.87905581360777
184 4 7 -0.7739570711930206 0.1605252776219494 27.028113264977602
185 4 7 1.2146825159854795 -0.25974462508913093 26.76654368543927
186 4 7 0.8905661856347235 -0.5761275981476852 25.524288629934777
187 4 7 -0.14912247877405815 -0.5185465497770374 25.89083983105085
188 4 7 -1.2681871122540294 -1.1516961023590966 25.58970540705514
189 4 7 -1.6108350721195777 -2.404508154588709 24.613520468393418
190 4 7 -0.8542914432844829 -3.6924276472511104 23.49582064494278
191 4 7 -1.1305276788480898 -2.9692405635319115 21.803554976951617
192 4 7 -2.091737963634366 -4.817059951382462 21.693750086665535
193 4 7 -1.5892883839897587 -4.623315044967437 23.116025538405566
194 4 7 -2.9518116833562775 -5.178401019656837 22.311356612065374
195 4 7 -1.4171256564507508 -6.50189745007099 22.80941574381377
196 4 7 -0.9650775621226518 -8.265280154939914 23.315468029553998
197 5 8 -0.8778963982194502 -4.476468680848491 12.028048171734206
198 5 8 0.12585609746821827 -4.9720599286940015 12.887641556931598
199 5 8 -0.18930349604099034 -5.687882574568847 14.404555158341111
200 5 8 0.6639546342490799 -4.301180291652814 13.634648307725707
201 5 8 1.2311828905551037 -2.9645988601844837 14.89782238291565
202 5 8 1.2375441756193333 -3.726485749322051 15.891801625374457
203 5 8 2.9942687127682346 -2.9048651719932344 15.460930256284287
204 5 8 3.735571191396086 -3.6020168117341944 16.76187524434591
205 5 8 2.6725545147757903 -3.177891236936965 17.25630240147704
206 5 8 3.4037991577124274 -1.216390980868307 16.831134183311143
207 5 8 3.51072494554546 -1.3070764558566563 15.652758721235655
208 5 8 3.5833321613342273 -2.043961444068048 14.780633679084907
209 5 8 4.122715020087286 -3.3359317975174676 15.47602565306935
210 5 8 5.9142694860995855 -3.51510801572449 15.179499158192213
211 5 8 6.168885798089897 -2.729418739229937 14.005464257700893
212 5 8 6.8343188168395175 -2.2971401104967013 15.142794096791745
213 5 8 7.615286911861726 -1.2106210210132942 13.830667685559597
214 5 8 6.955711506582199 0.17129974798416567 12.750059108100663
215 5 8 6.46496298429478 0.8498172050186342 11.969400523167263
216 5 8 6.5937836835510995 7.190662897849078e-06 11.140393860330349
217 5 8 5.256832144633334 1.1557442667278637 10.704283247566106
218 5 8 7.166707933121288 2.0094652518481606 9.556722453667517
219 5 8 8.212992249362797 1.435945294534314 9.180689637238455
220 5 8 8.594936551944942 1.0403775868940393 7.978955367469445
221 5 8 9.45897304751974 0.35872100223142117 8.8144642063048
222 5 8 7.814777328365337 0.5536439576731946 8.65837228443461
223 5 8 8.448144273701036 0.5667687985230201 7.09626733934178
224 5 8 7.515578309259461 1.012383398851206 6.775477110477785
225 5 8 7.035759249124833 0.7560878456571959 5.773849643566836
226 5 8 7.6315543436327085 1.3667110206072692 5.008801294778411
227 5 8 6.967453532938787 2.175009068052785 3.446961679830489
228 5 8 8.24285548367088 1.5423581714315298 3.8108742811981995
229 5 8 9.331460758811543 1.6146820314746355 2.8273078088061214
230 5 8 8.523083638224056 -0.049329799991628676 3.0994431460927787
231 5 8 7.918930240286302 0.9018761291670421 2.5418666021996046
232 5 8 7.71345248689191 -0.5999816760439552 2.219015104714594
233 5 7 8.600965732576437 -0.4213681576710294 1.0387271198916332
234 5 7 8.47542173999956 -1.4614285255735797 1.8089902294044657
235 5 7 8.171815197538372 -3.288556556428512 1.20158385200453
236 5 7 8.819736378873378 -4.371157398711654 1.1206728058979314
237 5 7 7.3865801199991035 -3.6780883012488013 2.004380283293902
238 5 7 6.904684498257495 -5.531085457466377 2.696565423690052
239 5 7 5.671623129890472 -5.102025474753 2.390078611523646
240 5 7 5.420724890425253 -3.5575816427481213 2.034175896372205
241 5 7 4.4829277583732665 -2.753947581817288 2.4148020756735007
242 5 7 5.155206258931184 -3.363751624824712 3.044058045206093
243 5 7 6.14249331555406 -3.4277720783459174 4.062723030847832
244 5 7 7.342024834605187 -2.3184488610146987 4.534205422348431
245 5 7 6.285836867191241 -1.4293892217245072 3.5819784441318814
246 6 8 -2.3060606748492574 3.4684088367591217 3.978902261845374
247 6 8 -2.3620013289851847 4.355496452791959 5.404943449550456
248 6 8 -3.4491652338524106 2.8768746977537627 4.663030560521953
249 6 8 -2.9779284662090744 3.2271345664374924 3.1593515534522134
250 6 8 -1.5189046256880823 4.046405053663977 2.373558214525823
251 6 8 -1.2480003195098122 4.363318051835647 3.728260216110247
252 6 8 -1.1012284817933122 3.220572016446317 4.86934288170641
253 6 8 -0.05751810051171256 3.5350742369832644 4.6685135492009
254 6 8 -1.553366840592257 4.974631512293935 5.724560629646828
255 6 8 -3.0155231199760495 4.764163435976247 6.551409945119767
256 6 8 -1.2481285608815285 4.482031827163274 7.382232181737342
257 6 8 -2.087441443767086 4.783966696978836 8.490844206826791
258 6 8 -2.804204885839722 4.912725544727954 9.35809588328221
259 6 8 -4.120959679742679 5.476802257897788 8.472910739889038
260 6 8 -5.013742036741401 5.662837257753159 9.139632827575234
261 6 8 -4.281793951916284 5.263888531067237 10.258803240581047
262 6 8 -3.1397820127219878 6.022809779525014 9.900690561546904
263 6 8 -3.104325831795938 4.716822603876949 10.326153196372266
264 6 8 -3.608612523286507 3.8350844026106254 9.907698820332914
265 6 8 -3.843366596915918 2.5455413601695156 9.273710551411229
266 6 8 -3.3821634119553456 2.152896122033253 10.807530854762378
267 6 8 -3.704106080030899 1.4813710567791676 11.961812216543047
268 6 8 -4.010249832976157 0.31493481899252757 11.549818509416877
269 6 8 -2.8048069655829173 0.8037059628350283 10.989136690667934
270 6 8 -2.9328751298921625 -0.607566345848127 11.684613626582125
271 6 8 -2.6428365709306 -1.6166562026115767 12.494467467412923
272 6 8 -4.168295631382462 -2.1567003864971332 11.956715024597028
273 6 8 -4.066445353357416 -3.1129038863534184 11.67776029704004
274 6 8 -4.556045515921067 -4.287130194552149 11.860919311418307
275 6 8 -4.815651314481879 -2.5164137922655927 10.903102147242794
276 6 8 -3.417146729772821 -2.233509396566231 9.515425535365315
277 6 8 -3.2444721650321986 -2.69945752380607 8.488433476660559
1012 30 10 -2.4034122677150527 -1.3450550959432976 8.897158946036587
279 6 8 -3.3071421707251702 -2.4702646350506203 6.780848048393906
280 6 8 -4.621838182336333 -2.006247424847127 5.6670406023445565
281 6 8 -5.071302631442278 -1.2921623331193164 7.390414011562778
282 6 7 -4.793628494494967 -2.70485694805856 7.999425012677155
283 6 7 -5.431476675115056 -4.447523381551894 6.8014576266786815
284 6 7 -5.770318920793558 -2.973731796806073 6.0179154302491815
285 6 7 -6.500318847303133 -3.5864770765409077 6.546408911097759
286 6 7 -7.349311704422767 -3.4766633167889016 7.374319047538893
287 6 7 -7.468019142586285 -4.9009119708604825 6.492753929458023
288 6 7 -6.437913786900482 -5.579786145682549 6.784835724321043
289 6 7 -6.972384738215711 -6.0018907970484054 4.9757630531234645
290 6 7 -8.119223715151183 -6.825762771350376 5.5549921734032806
291 6 7 -8.544302119399317 -5.5354918978595355 4.999088156560567
292 6 7 -8.603563972440954 -4.465323781903604 6.229529839058026
293 6 7 -8.296597693388438 -2.6637536980192995 5.144668874467468
294 6 7 -9.220823873829467 -2.936146316181594 5.774768549212098
295 7 8 3.5550813269703743 13.716297113747197 5.80608744271931
296 7 8 4.068178863795304 13.610661800278278 7.382019526298402
297 7 8 3.7897301059696007 12.797674833925036 8.337767820792575
298 7 8 2.2862259073899773 13.626250720585546 8.943700593164088
299 7 8 2.5495504227889665 13.551365867879163 7.272792774777871
300 7 8 1.6359237209902482 12.647263921482537 8.12728078471125
301 7 8 0.6346715029964235 13.836589110306235 8.885799202403264
302 7 8 0.8822464506905023 13.816825488320521 10.046812035089175
303 7 8 0.927531564617525 14.726330801744078 10.741001830468873
304 7 8 0.5612319368543842 13.544706906939263 11.148922457579792
305 7 8 0.7377013996943749 12.015132967076035 11.404960001100305
306 7 8 1.798732355184372 11.193988992240744 11.320736992058919
307 7 8 2.4330257250643483 10.233583336160425 10.565153140599932
308 7 8 4.080249215560078 10.889680063006715 10.367203372099011
309 7 8 4.2193354898444735 9.417834863702124 9.621795914285247
310 7 8 5.437180230898664 10.726175119516768 9.648238623171965
311 7 8 4.743700390972914 9.918237102033526 8.328215240883754
1011 30 10 4.661256508360707 8.092222009157087 8.492813178943456
313 7 8 4.006692790231814 7.371476811529087 9.367532057569013
314 7 8 4.023271641616268 6.991648520154993 8.02184634825059
315 7 8 3.2287140490625994 6.783953755881786 8.955874976222226
316 7 8 4.22365638856809 5.822978181817658 8.763847659506467
317 7 8 3.0213859847300344 5.461498924814084 6.896061643090102
318 7 8 1.908326877926436 5.1065906584145475 7.28531727591722
319 7 8 2.048827988583399 3.9033253451911443 6.529042466565388
320 7 8 1.932964951998073 1.7846903295717238 6.866803131790843
321 7 8 2.0349981521435208 1.0101564705133106 7.801263486164816
322 7 8 1.0420071346905033 1.1620435236971838 7.068532601978012
323 7 8 -0.6565071961717245 2.415871663946617 6.466327955655347
324 7 8 0.7346649107361 2.198046180182296 7.145599005353783
325 7 8 1.3210189572286013 2.999170506555456 7.669491090218075
326 7 8 1.3230945680711736 3.9609583568355333 9.267316211663307
327 7 8 0.7857231923402938 4.91458043465931 7.888579454823055
328 7 8 -0.019489374570901264 4.914005228567732 9.052185380669806
329 7 8 0.7847686325536117 3.694732657360252 8.422156675748026
330 7 8 0.3168295875781874 2.68640478360213 9.67714076084948
331 7 7 -1.32368340313422 1.5873464850982721 10.110983276434215
332 7 7 0.19168338108580632 1.7125035780914222 10.586990829035091
333 7 7 -0.09698814120689594 1.2032571821144606 11.723543455399698
334 7 7 -0.700517130863678 2.7783028843813553 13.228709609340438
335 7 7 1.2837667656447078 2.152152923874153 13.149034281182526
336 7 7 1.3855029884661003 3.9486640701789195 12.59465757951656
337 7 7 0.17315981308102896 3.463570228600696 11.918934419806709
338 7 7 0.5644987218301665 4.913781370209246 11.956895324914605
339 7 7 1.9503970193151834 5.678653946985418 12.500434026580683
340 7 7 2.3580638781442276 5.264854558639016 13.814174845022034
341 7 7 0.8502535458372966 5.590224963555915 15.187097718039054
342 7 7 2.6377068430900548 6.431850910574045 15.34714189476047
343 7 7 2.8276900174568893 5.962514115791004 17.02920027735702
344 8 8 6.477883160072179 19.14526719421729 -9.36731188016182
345 8 8 6.956907831420035 17.676584080869564 -7.944597590839102
346 8 8 7.689934770410289 16.700415367991017 -6.948382257883277
347 8 8 7.282246530680686 16.10385226449962 -8.080164693439382
348 8 8 7.912108817817311 17.205252308251342 -8.137374430054056
349 8 8 8.665781011592061 16.692868925159047 -9.805500437197496
350 8 8 7.991129765446009 15.924803937088498 -9.035084727265334
351 8 8 7.09169902809054 15.796413019238914 -10.227148678968407
352 8 8 7.511753998727563 16.80266694870043 -9.911399261904371
353 8 8 6.584801168510691 15.789332768211466 -11.044496394713711
354 8 8 5.936458912474988 14.356478966922971 -10.94198470341309
355 8 8 6.548641288025052 13.375191459163576 -11.759293461336227
356 8 8 8.054699222651589 13.46310500093938 -11.469920253478497
357 8 8 8.184434900881131 11.717498754602422 -11.507520728276901
358 8 8 9.348992260159667 12.138353429035083 -10.031461875594056
359 8 8 9.975372769453733 12.21838064284851 -10.925743400090777
360 8 8 9.631273379795745 10.673802048005891 -10.467189303955095
361 8 8 10.325206601196527 10.293865447130118 -11.353268251799339
362 8 8 11.910699978993854 9.147305949881982 -11.621759648734734
363 8 8 10.324599734803478 8.599447917032705 -11.875337212921892
364 8 8 9.986445720569861 7.644520870175288 -12.871639629223251
365 8 8 10.378556524008255 5.818251823603192 -13.153933895035342
366 8 8 9.359685068199017 5.343959334019339 -13.403790738421845
367 8 8 9.340851020172451 4.073830680366907 -13.490738763446123
368 8 8 8.949361551875125 3.408843328456972 -14.340516192714428
369 8 8 7.748856608940988 4.348105237991335 -15.059977201646753
370 8 8 8.945438143136716 4.492441347771729 -14.798891225252177
371 8 8 9.319392106550916 4.0246723318244895 -15.654457730566389
372 8 8 10.283484861878547 3.838278331351774 -16.043035356356746
373 8 8 11.704665184472187 3.6475374179018676 -15.995995720891969
374 8 8 12.987481003853919 3.015646090937513 -16.50862694523161
375 8 8 11.701265364578923 2.3203893457858213 -16.679419366267744
376 8 8 12.753322387113334 2.6636280489983517 -17.96259539694992
377 8 8 12.228181691643945 4.0374433404742 -18.17594234771986
378 8 8 12.004559957211926 3.4958082911237107 -19.190617162405253
379 8 8 13.517492275087113 2.439017639937665 -19.564090400825435
380 8 7 12.636864354824853 1.6462844267228538 -19.84664048297189
381 8 7 13.61206425468539 1.4671686569791413 -18.94422960262524
382 8 7 12.825731436900677 0.4841699184345173 -18.741724236205282
383 8 7 13.895350025187994 0.41305971264335395 -19.850933808226245
384 8 7 14.721881294241474 0.3047598318768867 -21.256207921111123
385 8 7 14.726607852440777 -0.8244863849516362 -21.86004202014386
386 8 7 14.341738227291085 0.25195095352195873 -22.97981625172045
387 8 7 16.179539879010555 0.39295274536182406 -22.022678928407856
388 8 7 15.428303506420967 -0.7846611275766794 -22.890877741887945
389 8 7 16.359182719160156 -1.0705257894312141 -21.25640983463097
390 8 7 17.6553935756386 -0.673555436927426 -21.153081520186177
391 8 7 17.55309880488132 1.072167173835776 -20.61823446378762
392 8 7 15.828370719663646 0.04522724113559346 -19.907863291754875
393 9 8 -6.62845202856546 -5.484293009150596 -14.68995883902666
394 9 8 -6.266443618700431 -5.0639542004414695 -15.543398013435704
395 9 8 -6.536348485262444 -4.786807751806543 -13.846630855748929
396 9 8 -6.632959692706361 -3.6411025095177445 -14.182215556464303
397 9 8 -6.4452703773938875 -2.4685000224210327 -13.266700512975914
398 9 8 -7.480559431301361 -3.027413829807172 -12.752777130174032
399 9 8 -8.288302254510251 -1.9731942509561353 -11.724850345531207
400 9 8 -7.300349560435451 -1.8817120435815529 -12.632160676997417
401 9 8 -6.423152963915087 -1.1938254244064739 -12.658546188977384
402 9 8 -5.183047630507667 0.13471075874477975 -13.726455462880573
403 9 8 -4.740671485161219 -0.20128303959466198 -12.736245920565006
404 9 8 -4.427086726712472 0.6631082521568077 -11.553024755443124
405 9 8 -5.7069176437899936 0.21941705737148723 -12.665620280710938
406 9 8 -6.827028888075983 0.9828744523264881 -11.517601949282005
407 9 8 -7.6674516647413204 1.6158277773193979 -10.821688942893015
408 9 8 -7.634133763084009 1.1908678596645321 -9.572888858849332
1010 30 10 -6.395247161901872 1.8543906456651678 -8.668017953815221
410 9 8 -5.951447982807754 0.9435047408700191 -9.277885550088758
411 9 8 -4.6308861676097095 1.5396057284869078 -9.075975839613902
412 9 8 -4.7578908125458295 0.3689011036819194 -8.389541357378674
413 9 8 -2.8089155373417 0.0671670939509224 -8.751898543632413
414 9 8 -4.157552048691582 0.18038106526803604 -7.587714319083549
415 9 8 -5.543007639292439 -0.6105535180026423 -7.6279827259862705
416 9 8 -7.362945752806349 -0.5661241122272779 -7.105884183015191
417 9 8 -6.549032393165361 -0.14898969928239325 -6.521375934609377
418 9 8 -7.91968714412336 0.285268393832231 -6.322916823164047
419 9 8 -8.918692720007243 -1.2925215182800356 -6.300000720461279
420 9 8 -9.905145941213155 -1.7284509830862849 -5.70045309421212
421 9 8 -10.861787721496347 -0.9134579126812434 -6.247321918288994
422 9 8 -10.995450826345252 -2.166490818144381 -5.86817133517619
423 9 8 -11.430953677738161 -4.245053232899288 -5.781926613652678
424 9 8 -10.193554705164027 -4.1559174838708 -6.389467211130833
425 9 8 -11.832719577552808 -4.044181924100989 -6.925977443517234
426 9 8 -12.31788413510834 -3.395907934078471 -7.631728402154349
427 9 8 -12.940091548562751 -5.271737642082512 -7.271192797902241
428 9 8 -13.456534193106648 -7.291035852166229 -7.341307928838748
429 9 7 -13.020690446695202 -6.722748090041127 -8.293696009061064
430 9 7 -14.434862020511481 -5.5989482916293545 -8.142264512491003
431 9 7 -15.703888756471597 -5.348377334407552 -6.582532322038993
432 9 7 -14.725470987157227 -6.1598026670481945 -5.203479055157825
433 9 7 -14.42318137267741 -7.4908856366616225 -5.1156278351920434
434 9 7 -14.322364671066657 -8.508823760985829 -6.071283252683964
435 9 7 -14.060137239665757 -7.3349055367317035 -6.392620268877657
436 9 7 -15.244520695416968 -7.696096493921466 -7.204594694988086
437 9 7 -14.419933310958108 -6.93825581702812 -8.159713460098553
438 9 7 -16.379341798875355 -7.141319707503512 -8.142304784046681
439 9 7 -17.86165844698195 -6.72072655605257 -6.9999684936326965
440 9 7 -16.85901364993208 -6.620118679856607 -6.18412341718088
441 9 7 -17.113849966129163 -6.210635467213296 -4.8208658342294575
442 10 8 -0.33771033375569653 16.046031276220642 -1.0346827728279109
443 10 8 -1.250002153482704 15.743128459830656 -1.8703593494877808
444 10 8 0.11254119497612745 16.47178118339269 -1.9347675837686886
445 10 8 -1.8849633293570922 17.669120410377918 -0.5521801620078735
446 10 8 -2.518403780651677 16.014315061261716 -1.0403857572626527
447 10 8 -3.6050934600681903 14.95751023071234 -1.0126852550353165
448 10 8 -3.327902435198191 14.154937345351064 0.47230678492973555
449 10 8 -3.7817458073361223 13.663860684004824 -0.8322577849925274
450 10 8 -2.1218196356197763 12.971736662518977 -0.9180788380961112
451 10 8 -1.3660736814171344 11.636636443939082 -1.5861919648571812
452 10 8 -1.7274232113773842 11.817395884560025 -2.8573980262583185
453 10 8 -2.628492184059712 11.437890337832243 -1.9362457938584605
454 10 8 -3.6193011667962254 10.855642523024645 -1.9291957674079427
455 10 8 -2.9155718078564505 9.862755156995604 -2.481559242926887
456 10 8 -1.9429635809751475 10.759295691801437 -1.4479086881984773
457 10 8 -1.5503653882434203 9.739990568612992 -1.7577089433551056
458 10 8 -1.2758931535043503 9.329640630542062 -3.3437437523901505