# Generated from readdy-to-lammps

1005 atoms
718 bonds

10 atom types
1 bond types

-30.0 30.0 xlo xhi
-30.0 30.0 ylo yhi
-30.0 30.0 zlo zhi

Masses

1 1.0
2 1.0
3 1.0
4 1.0
5 1.0
6 1.0
7 1.0
8 1.0
9 1.0
10 1.0

Atoms

1 1 8 -15.429490810094952 -10.117525998331608 -12.224772357713293
2 1 8 -14.709813490884208 -8.213784683030072 -13.173792718260676
3 1 8 -14.849793329807564 -9.462414255556364 -13.45368615775523
4 1 8 -13.708940128749902 -9.817990156913654 -14.450103148030687
5 1 8 -12.268996326380577 -9.240417585974635 -14.697194936454167
6 1 8 -12.007619547683841 -8.427614471019476 -14.077103518626373
7 1 8 -11.651802559639123 -7.163070705704144 -13.70227482396904
8 1 8 -10.930427519423322 -5.613075361610265 -14.334555642236817
9 1 8 -12.02828631000356 -6.043465812388834 -13.053090130810808
10 1 8 -11.94648583139978 -4.177520917284998 -11.414885921224963
11 1 8 -10.822002300111548 -3.601912801722533 -10.750253026719653
12 1 8 -9.5238451259395 -5.115524122694634 -10.97058119644158
13 1 8 -8.820920942497363 -5.962799696884155 -12.39485997828169
14 1 8 -8.343363740222198 -4.7993486426700995 -11.90494239907576
15 1 8 -6.9897706030765105 -3.931142696583961 -12.480526492373242
16 1 8 -7.210438172255757 -5.207165110237959 -13.226255641135001
17 1 8 -6.549194537499021 -5.1558336114701895 -12.352384527728912
18 1 8 -7.03640165674829 -5.885940206005426 -10.83629460938146
19 1 8 -7.447504841190867 -6.734562731201665 -11.336683107578255
20 1 8 -8.715720181709381 -8.41970414383574 -9.943522519157934
21 1 8 -9.852786660785979 -8.736275967076889 -9.64969731420867
22 1 8 -9.309392294399892 -8.033415619423218 -8.384293587831166
23 1 8 -8.241728035175848 -8.430083298818296 -8.177013577470824
24 1 8 -7.639647432520407 -9.318319949087527 -7.826626385355989
25 1 8 -6.6783988367453375 -8.53618059341627 -7.576949060566511
26 1 8 -6.895780366924662 -7.30679931248336 -7.5989360508520996
27 1 8 -6.201275072542147 -7.439458859546431 -6.598053351683387
28 1 8 -4.943206337630597 -7.6881842828928475 -6.327072368503135
29 1 8 -4.857578875544779 -7.62141630632499 -7.78453525480739
30 1 8 -4.484709607328491 -7.022265324422165 -8.852240034752572
31 1 8 -4.27409180103722 -5.353982761472514 -9.396730523331259
32 1 8 -3.823360741911526 -5.999235455209139 -10.559658941803727
33 1 8 -1.7948921940279425 -5.796577801372777 -10.14686265973921
34 1 8 -2.216638758659494 -6.056423706944995 -8.828332469167654
35 1 8 -0.7638971963144233 -5.87626120909075 -8.966013909830371
36 1 8 -0.07325882362488677 -7.038620180391497 -9.13170484164378
37 1 7 0.5969798749748009 -7.690766288168641 -10.321248981747384
38 1 7 -0.06268343441824704 -6.535443928577259 -11.234835422451592
39 1 7 -1.6220304294184724 -7.227016417404545 -10.466551002975866
40 1 7 -2.876951878349971 -7.284772082952436 -10.50051651397244
41 1 7 -3.024884764964244 -6.429947142852707 -9.928485337334688
42 1 7 -3.9357374020320606 -6.733187006898367 -11.53459979609478
43 1 7 -3.9401693666744064 -7.144646110883535 -12.731735682695838
44 1 7 -4.093438861105 -7.005246815778054 -14.076477173558215
45 1 7 -3.292239504233749 -5.3455487396690184 -13.355893641102345
46 1 7 -2.144014619276755 -4.8388614712080695 -14.54227529171123
47 1 7 -0.6295557875078613 -3.8675673874811856 -14.244181599247785
48 1 7 -0.7570340747329437 -2.519154600010062 -14.1590142168459
49 1 7 -1.223272173358729 -1.3462351526137402 -13.880614210289723
50 2 8 0.9377151550844581 -1.7216911738791103 -2.7959166451415616
51 2 8 0.49643975969411697 -1.4537506676428895 -1.4503226048968985
52 2 8 0.51153520728698 -3.1102493750608327 -1.3735148816080747
53 2 8 1.7554532907335128 -3.323828127289211 -0.44745424241746845
54 2 8 1.2476059253941414 -4.384329345765226 -0.0060498044333323
55 2 8 0.15836303023131942 -5.385852074924433 -0.14583085242920213
56 2 8 0.9858567281401748 -6.064349642702532 1.2818748674928007
57 2 8 0.15855836189579187 -5.839215307852364 0.7474604621921135
58 2 8 0.5960953434956834 -6.056616469044903 2.227099104830463
59 2 8 -0.3431090394907654 -5.880795892108773 3.7186335971916877
60 2 8 -0.3971522206015772 -5.00787917726213 4.401459791242475
61 2 8 -1.8961775345481922 -3.7677143990946838 5.7504063132331975
62 2 8 -0.9732150502266781 -2.6348451739522916 4.703900611946837
1007 35 4 -2.5685812269251835 -4.7399155733381155 4.207515350084612
64 26 8 -0.8982337003973688 -4.499263842177236 2.9699183369702484
65 26 8 -1.2449867709450464 -5.490823436630245 1.9905605473283148
66 26 8 -1.8691119360730286 -4.867560177015654 2.89043058410947
67 26 8 -2.938025625497369 -4.59954375852265 3.0662747448368584
68 26 8 -2.664380131985864 -3.483151275538511 2.5985398899356245
69 26 8 -2.591701457152106 -3.705556289310315 3.8743844854487612
70 26 8 -2.6075683076384704 -2.8411199192174945 4.993735109681928
71 26 8 -1.7904743332485376 -1.4340090776509362 4.78105147970388
72 26 8 -1.5746138199118334 0.05442642740393747 5.028634361849383
1009 35 10 -2.1936126696822047 0.9609872704861521 3.7061210251715853
74 26 8 -1.8931179792217325 -0.4819529374559841 3.081729493296809
75 26 8 -3.2161232311326775 -1.0426081545697172 2.865154715511723
76 26 8 -3.405157296573456 0.41425523823477367 1.643425326927421
77 26 8 -3.7158613789957915 1.7521766496457298 2.24472780970961
78 26 8 -4.889892589986942 2.575639563603396 2.4032831440165583
79 26 8 -4.78800305388827 0.7150316131418125 2.8362463001607905
1017 35 10 -4.087380354224085 0.5735772378957642 4.073852003877584
81 26 8 -3.7012486188712006 1.5367197529555334 3.4012926121769413
82 26 8 -3.6320627886172963 2.7568740789381425 2.5293043591375555
83 26 8 -2.475658402971065 3.395548745067548 3.2397187050505694
84 26 8 -1.5817394265581481 3.577216649931157 2.6220557452510502
85 26 8 -2.0255809811547767 2.024635935596548 3.580583329134041
86 26 7 -1.115180518003531 2.24662255946368 2.9166755356827507
87 26 7 -0.5602995777407609 1.3022518171297077 1.950468064615167
88 26 7 -0.5295185129121904 -0.38702072362886747 2.3086850149149094
89 26 7 0.25460485981200887 -1.6866774846143413 2.49328919038202
90 26 7 0.9202910440599429 -1.7118430124230233 1.4635198337340336
91 26 7 0.34415648053331865 0.0741913770570794 1.16418962739107
92 26 7 1.0723053873464692 0.5947657395937055 -0.15491698098415094
93 26 7 -0.5088709445256177 0.9773897639319902 0.4798870359897347
94 26 7 -1.0479361980317745 -0.10805847019927858 0.6207100496419075
95 26 7 -0.18433068280460255 0.0633416614729496 -0.342209897508278
96 26 7 -1.6334906252529682 -0.2072284060070018 -1.4616388232193607
97 26 7 -0.504319261390656 -1.5019190793671169 -1.147705012376214
98 26 7 -1.4649463155047286 -2.5227303642681123 -0.27166206631373524
99 3 8 -0.777121660008102 -7.78314647778426 -0.3971908151474077
100 3 8 -0.8973656580594487 -8.323787407291295 0.765427041420695
101 3 8 -1.798075976441302 -8.485680223818699 1.8669132541299247
102 3 8 -1.5163820733444306 -6.969483002715775 1.0843471962086217
103 3 8 -2.573054051607071 -7.661244055370164 2.296942684599334
104 3 8 -2.4829957516546783 -6.479504579209703 1.543852475797164
105 3 8 -2.7095943168878374 -7.651049521727873 0.36094617330458056
106 3 8 -3.679653324763827 -6.940185648181138 -1.3789976511054318
107 3 8 -3.0444904142161655 -7.571641872552518 -2.06066584764043
108 3 8 -4.4427911333049845 -7.773990624242799 -2.2378595295654473
109 3 8 -4.366000223354474 -9.792436347071629 -1.957975344726189
110 3 8 -4.968419242555264 -8.728744992174507 -1.673614454798641
111 3 8 -5.340508654171469 -9.882970888094322 -0.5197116808377213
112 3 8 -4.935079975936607 -10.383760317216401 0.4305241160537995
113 3 8 -5.9998889224108165 -11.612993191092556 0.5453647471378089
1024 35 10 -5.263871305325102 -12.583091940624069 0.08146934633404487
115 3 8 -4.679109174756349 -11.638569663093111 1.4199613782829419
116 3 8 -3.925072196059989 -10.410905755175742 1.1860470351643981
117 3 8 -3.8250631898060385 -9.270222849038111 0.9889870294822186
118 3 8 -4.4321838025245395 -8.349866376232121 0.3490285923760475
119 3 8 -5.615719224194669 -8.28638067525039 1.9639532017878676
120 3 8 -4.7977213028493475 -8.713824327480893 3.0059538845945135
121 3 8 -4.174368693074444 -6.870509382329205 2.9096588917045976
122 3 8 -4.508062892898189 -7.171217167531798 4.528882963727023
123 3 8 -3.7749366526673334 -8.039420115758137 5.222623191611396
124 3 8 -3.2852795496386364 -8.053072802513675 6.221032517689919
125 3 8 -3.0203015828350965 -8.271559039290445 4.531719703186653
126 3 8 -3.2305261674596464 -8.899843016650177 3.470909521723716
127 3 8 -2.352663138106539 -9.758907234952042 2.334094686985353
128 3 8 -3.241079407765706 -11.227947131950598 3.551375247522104
129 3 8 -3.6394970199687973 -11.876189973134446 2.9551023427110663
130 3 8 -4.7712182206089375 -12.645665613287006 2.9966892195515573
131 3 8 -6.190880801557611 -12.740104550349047 3.8924167990685787
132 3 8 -7.114129339025807 -13.61129235697721 3.7465216635234126
133 3 8 -6.855253101051528 -14.594482441394371 2.78447653718785
134 3 8 -6.479722206840673 -14.849125695270919 1.220318829036678
1025 35 9 -4.292074711901813 -14.934848330169936 1.59668343185492
136 3 7 -4.96338415984681 -16.416392087179304 2.0489966399133257
137 3 7 -5.341291734677818 -16.18096743300521 0.5792883067733202
138 3 7 -6.1010202856658164 -17.13504301319038 0.2231640863091315
139 3 7 -4.968765741218202 -17.612038651763623 -1.3224453841297052
140 3 7 -4.205817045839504 -16.79812065194577 -0.5160321261429662
141 3 7 -2.703256168719944 -15.612744387075239 -0.10661859564078661
142 3 7 -1.9380820626094544 -15.265875077626157 0.6650116699496031
143 3 7 -2.937367437230528 -15.601290552609465 1.851437498698234
144 3 7 -2.143076907015434 -14.433896877432192 3.4117856595082476
145 3 7 -3.9385908604881896 -14.38620917890537 2.996101963884702
146 3 7 -3.6703367017989095 -13.352417672785835 3.503755768541654
147 3 7 -4.36939759742897 -12.186354583662187 3.9499110986642125
148 4 8 -0.4073455357633874 11.34328368132527 15.894696636113792
149 4 8 -1.0502508041994214 11.483697168916743 16.680841523771626
150 4 8 -0.5462036695759445 10.809928517760174 18.393331589865046
151 4 8 -1.6819802210495605 10.107304166839254 18.26578666623083
152 4 8 -0.7120114930301616 9.915459812165496 17.5884332003669
153 4 8 -1.7531729171755568 10.416220196612217 16.723809812377354
154 4 8 -2.983640250772945 11.159474707172722 17.70881427803823
155 4 8 -2.9160124690318128 9.855834275101694 18.121874565450277
156 4 8 -2.7729347751969406 9.099767017878232 17.3113062089751
157 4 8 -3.701996254528887 7.589036586023547 17.14686730621672
158 4 8 -4.578284085903435 6.8771053398951345 16.29531236611002
159 4 8 -3.1719997449691046 6.361917482120282 17.175382961214414
160 4 8 -3.404860919463938 5.9749099770094904 18.765009642444596
161 4 8 -2.123253322970277 5.670764639404218 20.212484191592015
162 4 8 -2.4042816484838765 6.580794558827748 20.7770799331799
163 4 8 -3.561748653594387 5.774492931013702 21.380438528794567
164 4 8 -4.634382227727832 6.140466206476907 22.731833177043686
165 4 8 -5.398725909238798 6.720137842220885 21.67853642012865
166 4 8 -4.47309287911874 8.059211798148723 21.559122253091175
167 4 8 -4.843415497444898 7.800448289810537 22.95998306878434
168 4 8 -6.283129451339568 7.355886449124085 22.38838082987419
169 4 8 -5.377064074112599 6.765988333899201 23.63796401994783
170 4 8 -6.083079246294997 5.631387570086491 24.425570524554438
171 4 8 -5.903239578237023 4.670629283141731 25.669258758395962
172 4 8 -5.000709431117464 4.249049055642391 24.264626024853133
173 4 8 -3.3471215781742005 3.857035703937593 25.495105691008714
174 4 8 -3.863764715092468 2.108278545708209 25.924998608017038
175 4 8 -3.2326273189180235 1.2698604251107442 24.32720355228588
176 4 8 -3.0710943212637067 -0.3603446245096335 24.350110562220138
177 4 8 -3.521536041708072 -1.0501526102523009 25.169516160361862
178 4 8 -3.248128268766107 -0.31276346751728995 26.672503833020123
179 4 8 -4.240698224375853 0.32862181874482305 26.81817731498666
180 4 8 -4.259465522389159 0.20801519615665193 28.00935764782051
181 4 8 -3.7164021189526713 -1.3321105461542457 27.36524559593406
182 4 8 -2.94687339635742 0.012966409517565359 27.718722707140298
183 4 8 -1.108731910362196 -0.6956274451735035 27.995737254247004
184 4 7 -0.06826989680913569 -0.4343709021998705 26.771091436542527
1028 35 9 1.0656594499323617 -0.9841415960535467 27.787097070787173
1023 35 9 0.6321846875506177 -1.810846157413007 27.030792250193016
187 4 7 -0.7260833702066943 -1.895593146110052 26.68037759613781
188 4 7 -1.2716254982379775 -2.62749453000331 25.443481149751786
189 4 7 -1.438974054754186 -3.3861519297999627 24.364887844732586
190 4 7 -2.639647924630374 -2.775741029246576 23.42158258590474
191 4 7 -1.2926863505383375 -2.2768376823059326 22.207179171749544
192 4 7 -2.025013168777803 -3.8275573609408267 22.393737633226873
193 4 7 -1.4768110812739796 -5.088012738216376 21.480798920712772
194 4 7 -0.6436065485642987 -5.098044295768212 22.68733050174746
195 4 7 -1.8389355874259283 -5.62019396581081 22.80395123509519
196 4 7 -0.6638354925560395 -6.835149852935208 22.808562555192125
197 5 8 0.5624781412293617 -4.916593386977312 13.073237324851487
198 5 8 -0.3401948830087112 -5.550393727946412 13.491700657447282
199 5 8 -0.9837624211791755 -4.29386715869703 15.099332339562197
200 5 8 0.193949454108992 -3.864481774995787 13.966065284066017
201 5 8 1.5508891048040057 -4.15016361601796 14.14003455317436
202 5 8 1.4027171308958584 -5.107467992085227 14.767965971593934
203 5 8 2.8407192694734813 -4.024461727588292 15.064984465003983
204 5 8 2.7994810075370244 -3.987289675639569 16.044468883564896
205 5 8 2.951071378831652 -2.5805062169415285 16.880163486158736
206 5 8 3.453832140284626 -0.8039634890913003 16.96011577869777
207 5 8 4.427593728650425 -1.2957127092784255 16.285268316916394
208 5 8 5.418825989795837 -2.0698818657969764 17.291483677131982
209 5 8 5.397263505103183 -2.9912478210032543 15.560170987437003
210 5 8 6.396018655265945 -3.2643851862030524 15.729889252489974
211 5 8 6.077306186987994 -2.311959016165687 14.911218742039496
212 5 8 7.721222840659114 -2.556241359494165 14.448858996428084
213 5 8 7.059137116493681 -1.0185040778530752 13.434229581788376
214 5 8 5.577818375627584 -0.03822500127883375 12.365235397984568
215 5 8 7.052722953728629 0.6068052880668589 11.54269175604115
1019 35 10 7.664625351304032 1.572956886528309 11.878201939565658
217 5 8 6.579431072728277 2.1000138796825802 11.204044986795596
218 5 8 6.274463979569408 1.0212031981551375 10.139149849927682
219 5 8 7.640271566389613 2.122344519602307 9.238446623015223
220 5 8 7.740592304042397 0.9800343939808248 9.210686163931507
221 5 8 7.8785577564626585 -1.1129022042967582 8.522609168449447
222 5 8 7.287225288808105 -1.5238215821628924 9.409767352080978
223 5 8 7.248772456616308 -0.29507820607516994 8.610105376233472
224 5 8 6.8085086109655375 0.010254673328727662 6.797496886821314
225 5 8 7.944389576272019 0.7372375760400394 6.60588540893784
226 5 8 8.327549477739883 0.9795940825770768 4.802649675777983
227 5 8 7.504916229693824 2.1160643590083956 4.4917219797639705
228 5 8 8.299061707964976 3.1367789548901786 3.8385773245984174
229 5 8 8.664010731324092 1.7263983556049838 3.9366732884943842
230 5 8 9.475873899689196 1.1548193567640563 4.104104238429058
231 5 8 8.50450646369281 -0.057940410505567606 3.6231523773779726
232 5 8 8.03089787912372 -1.387985227684199 2.561065174963006
233 5 7 9.357184306343479 -1.2852585529479672 2.930386528316627
234 5 7 9.306007221293793 -2.3057301311197786 2.1407474084498443
235 5 7 7.764884584995432 -3.0185184498049655 1.072806900294618
236 5 7 8.15645548130265 -4.855745073145087 0.03635382754496825
237 5 7 7.835118888703839 -3.92941952747745 1.6187965644401767
238 5 7 7.1319494344871694 -4.916490533598744 1.9356400493689765
239 5 7 5.961606422434866 -3.736900652727346 1.0677961255103507
240 5 7 5.5937894880059265 -4.375836769092747 2.02022623374407
241 5 7 5.4970815941610445 -2.783011232872888 1.4519506510834022
242 5 7 5.652901389636479 -2.8640950757824566 3.3128426212077673
243 5 7 6.425253897827461 -3.039857466982075 4.676341639574244
244 5 7 6.4710714608888775 -1.5630371524293287 3.3561890506874064
245 5 7 5.1016440730503385 -1.2820298564729526 4.0497651937500425
246 6 8 -1.4603684905152383 2.1277307590904124 4.533026222725254
247 6 8 -1.65785636908486 3.4196498857123 5.162641939159359
248 6 8 -3.052992683901403 3.552758845769494 4.895187369239669
249 6 8 -3.906516737337113 3.9010777506677408 3.5849639933381794
250 6 8 -2.3832264950397506 4.566598610218413 3.2346541406744134
251 6 8 -1.490167185856137 3.5395408699607875 3.8203735776198053
252 6 8 -0.5086534249744528 3.112449623380823 3.7648835075969713
253 6 8 -0.5180973371957086 3.946455963858247 4.544263630421875
254 6 8 -0.7846574451399203 3.5937328685177548 6.513114461037597
255 6 8 -2.463554971268181 3.505539272476024 6.037758149176694
256 6 8 -3.1423671009986416 4.682890464810859 6.882428830309983
257 6 8 -3.2071268495864382 5.962020418678139 6.8565918561671975
258 6 8 -2.6080237361535765 5.520347768021037 7.99476472165124
259 6 8 -3.8866486338231243 5.816177598963658 8.36327823852459
260 6 8 -5.218997847731483 5.993596006569031 9.686976420318627
261 6 8 -4.597754675712749 5.207713158013843 8.891507908783765
262 6 8 -3.1872908124003727 5.086614592521753 9.775162997300443
263 6 8 -2.2506766988442557 3.82271031514589 10.913436169163813
264 6 8 -3.0530120790172295 3.087603979593582 9.948548393625645
265 6 8 -2.924070840202583 2.245434845106536 8.998308902420929
266 6 8 -1.2878736159796096 1.8867555148745552 9.853431013727876
267 6 8 -2.457989623209724 0.7692171492738308 10.77984211000876
268 6 8 -3.5953825659589658 0.40762361106883255 11.461924383043662
269 6 8 -3.0578616513875407 -0.07467696917406022 9.985210934965039
270 6 8 -2.6918186962806905 -0.18252273465382668 11.675407763260587
271 6 8 -2.4276037052666353 -2.0086523012506077 12.417870882300734
272 6 8 -3.182510842002562 -2.8319853489795266 12.390408449541555
273 6 8 -4.090907905807349 -3.4846960439637527 12.570148475147855
274 6 8 -3.920482242180664 -3.8209039650509826 11.10389865046747
275 6 8 -3.1600000135964263 -3.604382858644394 10.348804731725751
276 6 8 -4.491216694602718 -2.7907838029424497 9.100676245649243
277 6 8 -3.438039056423584 -2.7690278922941145 8.97443393305971
1012 35 10 -3.7032080162439542 -2.0333869978197985 7.6582366233293016
1026 35 10 -4.616296893653272 -1.0118230579166443 7.647913263705452
280 6 8 -5.05818343378511 -1.897893512823516 6.672377351756858
281 6 8 -5.743766377317293 -2.5498220271009595 7.9904904735154565
282 6 7 -4.8264566042258 -3.2061082167170754 7.141486606215988
283 6 7 -4.009755231995941 -3.766096048863492 7.708436810676823
284 6 7 -4.903777897835885 -3.86123599597787 6.219010094993432
285 6 7 -6.925519499055736 -3.3313822361119247 6.110983638750677
286 6 7 -6.472858329829377 -4.331447533807666 6.708598554697732
287 6 7 -6.080585966829313 -5.584147080147021 6.170643999763837
288 6 7 -6.542803951288678 -4.931324105060764 5.507354638461998
289 6 7 -7.7751031790927705 -5.196679887290056 5.962666600489583
290 6 7 -9.375119647251692 -6.13267073678519 6.229620511491136
291 6 7 -8.494693303825526 -6.097551026468969 4.8464158624952605
292 6 7 -9.636760812058514 -4.925720769966925 5.247455542202934
293 6 7 -8.295612985628408 -3.978098556981177 5.5507660840130235
294 6 7 -8.148862227703392 -3.505008170899646 4.573759791049248
295 7 8 2.9786347773559694 13.066698996786721 6.779250717735129
296 7 8 3.4846822905934167 12.895095947741112 7.748894784744321
297 7 8 3.5170459331601625 13.434592028620521 8.950340271579593
298 7 8 2.074442703915751 13.166187407129138 8.514820930761305
299 7 8 0.5871568163317588 12.310111791455698 7.99619794581839
300 7 8 1.1551778514812043 13.242518983049763 7.066539122353556
301 7 8 1.375618647071984 14.336409229869366 8.72922858526277
302 7 8 2.4523850944283243 15.23109628733022 10.168071666420117
303 7 8 1.6999005630598008 14.634057624248863 11.179034321808235
304 7 8 -0.44374524324339965 13.763816016592793 11.105600155954663
305 7 8 0.93960883990082 13.164461881603424 11.45821271223001
306 7 8 0.1611781652844424 12.226233168994682 11.261968734156827
307 7 8 1.7475275258710796 11.280595628698576 11.18176196622096
308 7 8 3.187906226281069 10.904150367262586 10.802155087425335
309 7 8 3.201306176492239 9.648565521242531 10.73574290548266
310 7 8 4.41334831813123 10.004493852769205 9.66572930571238
311 7 8 4.73834612330389 10.335194293736917 7.824089288695674
1011 35 10 4.720332082854795 9.28728889330869 8.20817441080882
313 7 8 4.01304691675257 8.224611363349593 8.663466682352368
314 7 8 3.7734728562180475 7.307506578522471 8.284068489905676
315 7 8 3.1047248837180597 7.865294829097177 9.232642539963578
316 7 8 3.456242820695587 6.736581677787392 9.975310198171442
317 7 8 2.7678782805807756 5.122074028572615 9.197014542520824
318 7 8 2.9423639895262292 4.221630281615949 7.902471612026133
319 7 8 1.979500085439713 3.1410790335982726 6.497458328394541
320 7 8 1.7607609671459696 2.3170620098033137 5.317187341473489
321 7 8 2.47637712223494 1.4619241545047 6.338330060477813
322 7 8 1.1961663143027055 1.6341106878133802 6.251774507234689
323 7 8 0.14221901351295635 2.3406062781932206 7.228830234242668
324 7 8 0.44002213119016637 3.246434100441721 5.702158005168758
325 7 8 0.3264863557595996 2.978105346358193 8.079026610058342
326 7 8 0.10401134414061027 4.1035173580192374 8.739868844999942
327 7 8 0.9866892436205772 5.006946593016791 9.157092491006637
328 7 8 -0.8075237844687934 4.969618229343363 8.700149973511271
329 7 8 -0.7285994757293708 3.0958785076722917 9.154731898147267
330 7 8 0.34317239857409504 2.914263436587042 10.070376847827191
331 7 7 0.6854512179772678 1.6761742791485676 10.45018391405683
332 7 7 0.004706673900087579 0.5880636051416692 10.010100572466083
333 7 7 -0.6889787762685345 0.9609793395742591 10.925711008187275
334 7 7 0.8670724586980487 1.7773238934451885 12.321833208763833
335 7 7 -0.3144958298388115 1.4430415325946686 12.792848920474157
336 7 7 1.1163530320441128 1.9617669055773341 13.404781791460293
337 7 7 1.3162074049794563 3.335071453342278 13.053369526721964
338 7 7 1.2335717174785983 4.727953240336036 12.450697336012619
339 7 7 0.39321463839684573 5.222244882113023 13.41737371853614
340 7 7 0.042288341455750236 4.4681129886192785 15.137378561287159
341 7 7 1.9442792738717691 4.931179726020193 15.643882809788003
342 7 7 1.787919467171246 5.732135173375226 16.639368883460943
343 7 7 2.7619435896431948 5.381755123461773 17.317514668947293
344 8 8 6.801343065532109 18.66755219746884 -9.453461123960489
345 8 8 5.841476079926254 18.795902104635466 -8.614197907947974
346 8 8 5.798464143576198 16.974182528242245 -7.589136609252878
347 8 8 5.4705672526449955 15.74438841250874 -8.850288445627637
348 8 8 6.272407164036798 17.526701476180794 -8.48102037028768
349 8 8 7.276474587551025 17.515550536035175 -9.51704488478198
350 8 8 7.309252820491362 15.908795450859682 -8.584590302974313
351 8 8 7.241094600554431 16.338288683767257 -9.673090556939192
352 8 8 6.266690740403789 17.110100576827058 -10.379653273845154
353 8 8 6.3527644629304945 16.428988604469655 -11.843263315763704
354 8 8 6.921754773741051 15.01490029590249 -11.080369984490982
355 8 8 7.495079727725088 13.802298853308775 -11.163072366512223
356 8 8 6.995408161874151 14.387394116067416 -12.570554204594963
357 8 8 8.319138886598726 13.912005467795781 -12.273839479659868
358 8 8 8.595086103956465 12.95291647204342 -11.969247529447696
359 8 8 8.885558166848678 11.677118244633695 -11.219928775281527
360 8 8 10.686452222109404 10.923031387677085 -11.464657188540425
361 8 8 11.070884346600561 9.029938398720056 -11.766270401094662
362 8 8 12.19353345207972 8.733022565811092 -11.871906889141595
363 8 8 11.339668910720306 8.672627569227 -12.932488010116751
364 8 8 11.683233731417907 7.007684208136921 -13.306872279176158
365 8 8 11.107719739456211 6.028204790002387 -12.678571094613105
366 8 8 10.170579107609631 4.96714538065373 -12.972231471236366
367 8 8 8.969864746094732 3.7423456488857747 -13.641150033190558
368 8 8 8.158120029858317 3.252147539206836 -14.546119100589658
369 8 8 7.438729581899022 4.3781285412834015 -14.363439297709883
370 8 8 8.05500623698127 4.847609371561549 -15.751013853054658
371 8 8 9.24516967318251 5.610687571679501 -17.277620954962423
372 8 8 10.75111228945582 4.569088935022638 -17.129692678045735
373 8 8 11.585843418734004 5.170342294072068 -16.40084069529071
374 8 8 12.291454424349498 3.740329715593575 -16.55933781831604
375 8 8 12.010054250906395 2.137941674643615 -17.174562958490526
376 8 8 12.139481966594609 3.5841655629291873 -18.515041787795713
377 8 8 11.762340770069228 4.4396132682491505 -19.69195336547294
378 8 8 11.79171446811472 2.892433945560466 -19.60452470154923
379 8 8 12.688299354100888 1.9772591889885678 -18.929347277041465
380 8 7 13.901949939857786 1.4585346439020992 -18.80898028792346
381 8 7 12.818205580933588 0.7811822255331521 -17.928685997194012
382 8 7 12.701033304394217 -0.21890328561878122 -18.848229016191983
383 8 7 13.477171615711798 -0.9884433245176052 -19.289298896989507
384 8 7 14.251452565308535 -1.3646913571403587 -20.123849043559012
385 8 7 14.195697526286603 -1.0474057782865318 -21.209842383836033
386 8 7 14.395479946618591 -0.2545672372681906 -23.30551031386915
387 8 7 15.348971809104425 0.6555262705416544 -22.17376914021723
388 8 7 15.74126401650921 -0.40345547321692193 -21.16939252767016
389 8 7 16.410396094997363 -1.837714675380778 -21.242055725995083
390 8 7 17.232269801636317 -0.5893310927958556 -21.115401932739257
391 8 7 16.691595997651824 1.275114484667435 -20.74500173211754
392 8 7 16.953840005621036 1.4738021764920908 -19.584548570899702
393 9 8 -4.559720233326339 -3.386239284988936 -15.752712704227518
394 9 8 -5.340974714029759 -5.3631008414298815 -14.112035929204557
395 9 8 -6.836852350785196 -4.084498851225447 -14.17992311005165
396 9 8 -5.845867022470093 -4.092599655112237 -14.457714060766575
397 9 8 -6.74961442410677 -2.9122425698115486 -13.92726369465121
398 9 8 -7.8811255781454905 -2.7315060705625576 -13.99020335976478
399 9 8 -8.401063600909431 -2.587802545718764 -12.789281906658239
400 9 8 -7.4644525712326395 -2.0692165504321975 -13.242542837544944
401 9 8 -6.882487028482659 -1.5992274682274688 -12.466073790013253
402 9 8 -6.709387687036309 -0.5758226707335375 -13.26058274749951
403 9 8 -5.479606644544115 -0.6830616630683232 -13.144956437074885
404 9 8 -5.875250301255734 0.3319459219265629 -12.07812011479772
405 9 8 -5.420070295978681 1.3700670209132797 -11.302892833735374
406 9 8 -6.617199714916658 0.7264750649712839 -11.201078628706695
407 9 8 -6.692171153920735 1.90277091811314 -10.429043290583337
408 9 8 -6.3238617576548775 1.8720100675922224 -8.946238759701899
1010 35 4 -5.571920000119231 1.2343981948131921 -9.619318034823205
1022 35 10 -6.407839325529763 0.8238796813908645 -8.521038300679585
1016 35 8 -4.6953606342901 1.327198214106968 -7.995920452961042
1029 35 10 -5.076608383522611 -0.3141597141655137 -7.260826905165254
413 30 8 -3.9170568006034405 -0.7728910369094636 -8.645722351400925
414 30 8 -5.43813160701533 -1.5869623149596093 -8.364438533398802
415 30 8 -6.306734876564652 -0.8185736301270283 -7.996162285535703
416 30 8 -7.187652885629249 -1.0919902894015643 -6.3485001624046085
1021 35 8 -6.633154912906116 0.9004274710829068 -6.259035271826935
418 32 8 -7.561502724582931 0.3165773357861884 -6.922265491451289
419 32 8 -8.760328209816876 -0.2180809059063242 -6.904299184601311
420 32 8 -9.437483177658411 -1.4244395369530158 -6.473395785929335
421 32 8 -10.667252484296943 -1.252815353946625 -5.53085986526633
422 32 8 -12.162323291863812 -1.6105058421826586 -5.537616118986492
423 32 8 -10.441258085708622 -3.017293126579906 -5.49627397571522
424 32 8 -11.064861421546201 -3.9568910281400815 -6.779080178946663
425 32 8 -11.633999345135479 -4.55287393848595 -8.17289275052553
426 32 8 -11.04071775747173 -5.50666925057627 -7.640120235789582
427 32 8 -11.832654804877816 -6.237623564815524 -7.016605439602368
428 32 8 -12.525980545391699 -4.963899594475614 -7.029407639397592
429 32 7 -12.260160269645269 -5.750002365906403 -8.898720346019262
430 32 7 -13.08942363829711 -4.350872608667947 -8.85007879932871
431 32 7 -13.859515049628229 -5.264743493798343 -7.803676571733849
432 32 7 -14.495537208343727 -4.931188935758858 -5.267251318949634
433 32 7 -14.660286968781206 -6.054245657239658 -5.648114747511995
434 32 7 -14.563380232341292 -7.137723181004668 -6.02110679674398
435 32 7 -13.946752631112478 -8.357533321182492 -6.2199714911603685
436 32 7 -14.770743395805626 -7.054620890266478 -7.912241729997737
437 32 7 -14.557252840132714 -8.208812693906278 -7.934972693317618
438 32 7 -16.122050278516117 -8.443707040528938 -7.904653942119534
439 32 7 -17.161234684295728 -8.362703912159514 -6.983258381844276
440 32 7 -16.396143731770643 -8.37611981222484 -5.651249294460614
441 32 7 -15.9587503531847 -6.908946537159538 -6.012552560205438
442 10 8 -0.3429649556594404 15.353682268307738 -0.8563871337179955
443 10 8 -0.6647355697191983 16.724073818492656 -0.974020733369379
444 10 8 0.4257415323659154 16.47850806042892 -1.0925762947283413
445 10 8 -1.7813418673789552 16.64092766327967 -0.3249730815639395
446 10 8 -2.237436400566444 14.840929650139762 -0.6613682582540997
447 10 8 -2.4148521690892832 14.359484578441696 -1.6746143625645173
448 10 8 -3.648033087128624 14.934959682659597 -0.8095939218124778
449 10 8 -3.3290598786176764 13.818448090016517 -0.7285088380696694
450 10 8 -3.2158445854641338 12.650529369584602 -0.9279634402944809
451 10 8 -2.067092968776416 12.25730825037277 -1.7068065895543028
452 10 8 -2.2816581368597504 11.733617211496618 -3.4799932084833096
453 10 8 -3.034328012663538 10.293175381772532 -2.776982668751583
454 10 8 -3.6279183625761133 10.245075445567581 -1.6402366538082773
455 10 8 -2.935254028200218 9.988677753248487 -0.6163827076132958
1015 35 10 -1.9639679970333803 8.689048207487867 -1.0218853090118627
457 10 8 -2.0403760203270167 9.64217484431365 -2.2196900411863707