# Generated from readdy-to-lammps

1005 atoms
650 bonds

10 atom types
1 bond types

-30.0 30.0 xlo xhi
-30.0 30.0 ylo yhi
-30.0 30.0 zlo zhi

Masses

1 1.0
2 1.0
3 1.0
4 1.0
5 1.0
6 1.0
7 1.0
8 1.0
9 1.0
10 1.0

Atoms

1 1 8 -15.404160669355733 -8.71183218117371 -11.232188721831815
2 1 8 -14.81210251083712 -9.723703437263039 -11.498659366097161
3 1 8 -13.610832336373653 -10.518480247380346 -12.757210150771451
4 1 8 -13.294749546642075 -9.335288560149447 -13.502708052833325
5 1 8 -11.881071444441925 -8.400816324203753 -13.445728550768896
6 1 8 -11.200199136086862 -7.906613148905737 -14.914487358995455
7 1 8 -12.39072360165758 -7.4634944240674495 -13.738210050111993
8 1 8 -13.03441467714576 -5.961023226067584 -11.870838242170002
9 1 8 -11.486723539636394 -6.290243600432011 -11.497610362648775
10 1 8 -11.190481870627904 -5.529375101120106 -12.443811783011148
11 1 8 -10.886071506982015 -5.388116082100019 -13.553593672981602
12 1 8 -9.510767132477945 -4.77517575432772 -11.64786189226584
13 1 8 -9.327997719365195 -5.492462568983614 -13.01841406379439
14 1 8 -8.19989494810154 -5.920032668019525 -13.691978648951316
15 1 8 -8.077111815465837 -5.789091921035292 -12.438544552980233
16 1 8 -8.045173291963472 -6.442520848314201 -11.646180570537656
17 1 8 -7.3058320514483945 -7.24054995590275 -10.383774096745732
18 1 8 -6.296218649295922 -6.943366134997739 -8.950527022706828
19 1 8 -6.721868742442802 -8.38301354285932 -9.154473984377793
20 1 8 -8.262700989223 -8.761279786669075 -9.201685849875034
21 1 8 -7.528691716604819 -8.030501515160996 -7.75914154710496
22 1 8 -8.649494218138178 -9.005735786348282 -7.005505477054624
23 1 8 -7.744229621594084 -9.931105306785273 -6.449041279553429
24 1 8 -8.621556900300819 -10.652202661657336 -6.891858003599145
25 1 8 -7.241935511539315 -10.35342140258029 -8.035968192345234
26 1 8 -5.877257173100113 -10.452926881359012 -7.930822211794523
27 1 8 -4.553624284046995 -9.535906044831878 -7.960196979416589
28 1 8 -3.6762903225492947 -8.288411638811585 -7.843213588150879
29 1 8 -4.108670750577726 -7.485776558848748 -8.437233421626937
30 1 8 -4.636327918259564 -7.52188423875701 -9.837341656923362
31 1 8 -5.00477095044282 -8.75583841620977 -10.339996067692816
32 1 8 -3.267099437143875 -8.743939516881285 -11.1532281832272
33 1 8 -2.281558934357078 -8.165591665682232 -11.063128420909564
34 1 8 -2.235729572393301 -7.245763091991235 -9.407405279166898
35 1 8 -1.487296851961269 -8.695742158088361 -11.254002518459078
36 1 8 -1.0220732732365092 -7.610610072660732 -12.337659404453495
37 1 7 -0.007873615748491002 -8.253418492418508 -12.917265150872757
38 1 7 -0.3457258982214507 -8.418792800298418 -11.586756058030554
39 1 7 -1.6417724241712033 -7.195735357324502 -11.370713451655561
40 1 7 -2.9278572758747994 -7.106197402659585 -12.252268285755232
41 1 7 -4.3782213197997795 -8.148338437034075 -11.944446889539988
42 1 7 -4.523577225634916 -6.956242687347473 -12.124268939408788
43 1 7 -5.050100079594493 -7.325770174955508 -13.333846433816282
44 1 7 -4.432670639445805 -6.000488676154608 -13.40507862354436
45 1 7 -4.346310221640102 -4.8159056883331575 -12.865487500726218
46 1 7 -3.083418333192479 -5.012900834342461 -12.596845216929243
47 1 7 -1.88323294071306 -3.972641889203801 -12.807016749948474
48 1 7 -1.3384844075958056 -2.9292270229147372 -12.138708567206924
49 1 7 -0.16551096051204506 -3.7139526645685166 -12.229869611720016
1050 59 10 -0.5851113844093151 -2.281899891752599 -0.3574513050475384
51 59 5 0.6417149472804823 -2.9723995521722473 -5.093029426303784
1046 59 5 3.2739917714828093 -4.4690452481806275 -2.12293216397325
53 59 5 -1.2745914064864476 -2.9018315511581765 -1.926646445907993
1042 59 5 1.6143755660509445 -5.024662709310738 -1.1434652682908693
55 51 8 4.412208099691427 -6.495676312950411 0.15547725002090154
56 51 8 2.17789094054814 -6.470703857448606 0.060250164527975325
57 51 8 1.411345881478812 -6.776065255393902 1.3490823079363254
58 51 8 2.5744004313739612 -6.6978826458127365 2.3809125841672354
59 51 8 0.5701835603448036 -6.491672779659695 1.9755237462552175
60 51 8 1.0608037998418602 -6.3547730545028385 3.1598479686198586
61 51 8 0.07747283583918861 -4.963969414544094 3.416620493174664
62 51 8 1.6671590878705875 -5.565993992124221 4.683122619285249
1007 59 4 -0.5446195623556126 -7.487313071067711 6.497871505093064
64 26 8 0.5918715613016288 -4.46434201535128 1.788584184792434
65 26 8 -0.4764566061289597 -4.140431501928763 1.762157287153562
66 26 8 -1.8111804852000173 -4.6289393784832 1.9225298249154623
67 26 8 -2.4461906002500404 -5.054376455483613 2.9779569686890133
68 26 8 -2.069358572898147 -5.105266219473688 4.226859359740483
69 26 8 -0.45736755981804217 -4.28794037968371 4.422876690781863
70 26 8 -0.6162535220665754 -4.662760366681769 5.885500190015356
1036 59 4 0.42570503152500144 -3.579681427384261 3.1572501949091474
72 59 5 -0.7528024942848138 -1.3212705119438288 2.594276792397116
1009 59 4 -1.5888145735628905 0.09227587302395064 7.609264598467557
74 53 8 -3.617869990466812 1.2417955060483323 0.6275024583634099
75 53 8 -2.4760161196741706 0.17087704821460004 0.4402150917345755
76 53 8 -3.5168073424954733 -0.1183841182041847 0.4623461263999643
77 53 8 -2.879235505388435 -0.4098923812947311 1.5799205943563528
78 53 8 -3.282918063556449 -0.8891074451242086 2.512736720565065
1037 59 4 -5.406101409568288 1.710918301243313 5.834020987742193
1017 59 5 -4.766215377562823 1.659213409211005 2.027919047458201
81 56 8 -3.354350026979095 3.1956294406548555 3.662261359196876
82 56 8 -3.7498410486434786 3.6116636459975475 2.3945626636734447
83 56 8 -1.8177811535915451 2.4004088882985237 2.1640133117309763
84 56 8 0.16938574855792926 2.438131191940202 2.006077101291095
85 56 8 0.12458900019556193 2.3377766570680083 3.274301784993411
86 56 7 0.9700407643381722 1.5626782093234106 3.8529250950700096
87 56 7 2.325554499913991 0.3973360153979185 2.465596063998334
88 56 7 1.5790466163087291 -0.9260592435139419 3.297277501360088
89 56 7 1.3591511940110177 0.42649238757351016 1.6999794097751542
90 56 7 1.86791879406235 -0.8143750311430303 0.9518682779707955
91 56 7 0.30922130539319453 -1.1291233523584374 0.4529274507453015
92 56 7 0.7011774764708305 -1.9979696263694038 0.7745377496695527
1044 59 4 0.8656839099335527 -0.5847330869864948 -0.23926323237751973
94 55 7 0.14086446107962633 1.242446804860688 -0.8918379503106956
95 55 7 -0.827238385571068 -0.32416706458401723 -1.5915858996407704
96 55 7 -1.2801876247989081 -1.429900652287728 -0.541378872559422
97 55 7 -1.685095621343469 -2.366457478492226 -0.268165872327179
98 55 7 -2.775535142606224 -3.565154774693418 -0.46345271499681434
99 3 8 1.5293279239338227 -7.778104072370635 3.1598159196363707
100 3 8 0.7009558838621124 -7.920369275650585 1.3741285172565227
101 3 8 0.4689819272800301 -9.300023936511883 1.7538970967919376
102 3 8 -0.6205367777516974 -7.7249365657004665 0.6855507506894709
103 3 8 -1.3690845356312729 -7.82393706642767 1.6030606936098772
104 3 8 -1.860403798243392 -7.564171747493358 0.6209676569942523
105 3 8 -0.9447902997877249 -8.322157407704118 -1.039256309089386
106 3 8 -1.837809341287371 -8.007807193959827 -1.8057777720476185
107 3 8 -2.66664990042839 -7.588430620216844 -0.8777348063261678
108 3 8 -3.6811352998555287 -9.018008000714161 -1.3204802341622361
109 3 8 -4.489236774132948 -10.026828370555156 -1.9098635609506323
110 3 8 -4.918015057482536 -8.961825811394574 -1.8191473430995062
111 3 8 -4.810371834510509 -8.360915605094327 -0.922658175718586
112 3 8 -6.024127657519463 -8.858747257322428 0.5212842674648354
113 3 8 -6.407964215815063 -9.846831530095072 0.47755516635291523
1024 59 5 -4.041074640285355 -11.868165251740976 -0.2724851633961659
115 41 8 -5.504737065093729 -10.652552033848698 2.234149645546423
116 41 8 -6.541135993677323 -10.238542634105047 2.8728615526086423
117 41 8 -6.649984411570528 -9.097273386012223 1.5389184318320748
118 41 8 -4.932803511375604 -9.942748518852813 1.2440491283393666
119 41 8 -4.599765355514365 -8.539446357212725 1.43306545970744
120 41 8 -6.81377883858597 -8.482557974042749 2.497769366338232
121 41 8 -5.163880344981249 -7.829747329890301 3.550908230763333
122 41 8 -5.6825665514790185 -8.78432581284443 3.0500357254624277
123 41 8 -4.271755864424131 -8.43354272147142 3.872316860979348
124 41 8 -4.1218877270115195 -9.555080240173291 3.322797449767106
125 41 8 -3.8575829663481214 -7.9304352099477375 2.9732500720527812
126 41 8 -2.6411828016734593 -9.292681162203866 2.79674468572093
127 41 8 -3.3664938727692486 -10.352458514139656 2.7858385783741264
128 41 8 -4.282929851524055 -11.49273862536118 3.8149395038943874
129 41 8 -5.305750529938131 -11.905423124758917 4.125698911643297
130 41 8 -5.652355463374729 -12.375676578621787 2.85503114340139
131 41 8 -6.970380553765774 -13.087880896648759 3.0783254806009097
132 41 8 -7.820406675653944 -11.816929959357127 3.20924428262689
133 41 8 -8.503313558179542 -12.813118509022452 2.710904963318332
134 41 8 -9.226798470975313 -12.9792346849386 1.9059439575908745
1025 59 5 -6.9124448719630855 -16.066896347400295 -4.934471751934157
136 38 7 -5.794854656427678 -14.066021555432807 -0.035646145803336055
137 38 7 -5.921968761524925 -15.78344671888306 -0.015282488338717658
138 38 7 -4.459311523488715 -16.171236256873772 0.11294286723250598
139 38 7 -4.559044246753939 -17.235113541025935 0.007397778756318592
140 38 7 -3.4642438172852743 -16.006877747133867 -0.6573619854711819
141 38 7 -2.229742948008907 -16.436056924472812 0.6764295726256253
142 38 7 -2.08504814358716 -15.195665790323014 1.3009132099974028
143 38 7 -2.445565683494588 -14.240164083653989 2.4077401532198337
144 38 7 -1.948364372013227 -13.534019427807527 1.3619646249221287
145 38 7 -4.269623635801868 -14.47467592103299 1.4579745714838972
146 38 7 -5.331733512810818 -13.59056139310678 1.2606697088477645
147 38 7 -6.1172751424941625 -12.162493735105583 1.968551744299352
148 4 8 -1.6263596561666167 12.581625797054686 18.513283537040902
149 4 8 -0.3698525671957038 12.520484639805177 17.795332270166504
150 4 8 -0.7747087272610131 11.291486590256518 19.56981236814302
151 4 8 -0.16405870570754993 10.075104484407694 20.389607673885017
152 4 8 0.2140998166527622 9.575245137976692 19.484872207698817
153 4 8 -0.37694666513702435 8.802473718591107 18.671180568041677
154 4 8 -1.801028946054512 8.278965120724925 19.193611991306984
155 4 8 -2.2852639436373976 9.034681599927842 18.493180569400447
156 4 8 -3.7524483703694607 9.043800103558052 19.472200314070435
157 4 8 -3.681818623773133 6.85934483010782 18.711338164730584
158 4 8 -3.4022587642993627 7.743769306131879 18.001048375294506
159 4 8 -2.401269320765484 6.687273137050952 18.704240667212076
160 4 8 -2.8722695177237685 6.1844670165045015 20.140034539237494
161 4 8 -1.182199619686462 5.679742515550719 20.14136771157821
162 4 8 -2.1995832633063226 4.874308294578349 19.80520092813886
163 4 8 -4.010779054935873 5.116455140096041 19.958125116913735
164 4 8 -4.4569804065987775 4.113976047865598 19.572295491275245
165 4 8 -3.984196703557322 5.471843931200642 20.98719078805008
1031 59 10 -4.818353345203999 6.841892033617423 21.642564961626352
167 4 8 -3.91356900617743 7.171085681362774 22.2368802887047
1043 59 10 -4.5618101295511755 7.550916530403319 23.46258796506065
169 4 8 -4.298650636841228 6.442869785795908 23.410852522386723
170 4 8 -5.095392267303175 4.927477360380485 22.43839465429751
171 4 8 -6.103182467885244 4.215801151450337 23.40694718602829
172 4 8 -5.150371939766259 3.4856988482405904 24.832109006157044
173 4 8 -4.327737472543276 2.693285783768327 25.123294434043753
174 4 8 -4.659918264050825 1.226822826944732 25.662483100598227
175 4 8 -3.302459578443275 0.3371230433147452 25.704067866552727
176 4 8 -3.0263458003293553 -0.6441529092676499 24.750272491492627
177 4 8 -4.031848917659282 -0.3854719097063869 25.62062129852239
178 4 8 -2.7053851026117637 -0.7520417743322326 26.29220469897515
179 4 8 -3.7355760024260904 -1.3642869273993878 26.860182880150287
180 4 8 -2.318960602825291 -1.0999410090749577 27.933256172847617
181 4 8 -1.2836840574651072 -2.0634116519415118 28.681336106287276
182 4 8 -2.0335744843421106 -2.4643885784564317 29.22896119873167
183 4 8 -0.7650336873675169 -1.1633932839657917 29.583891544596526
184 4 7 0.31399335630141645 -1.780663935310097 29.120229225696736
1028 59 9 1.5946323626145065 -0.5077187649597348 28.74790085693427
1023 59 9 1.415268294961198 0.6951188983540916 27.205852439989357
187 4 7 0.34064135631102455 -1.245477828166997 26.69429739395282
188 4 7 0.8103549687119515 -1.0575016173133032 24.802617489011098
189 4 7 -1.1400370275919243 -0.8552143130318088 24.71103446655645
190 4 7 -1.8079175651346349 -2.977739471671125 24.336056751209423
191 4 7 -2.586434050079507 -3.381122266090132 25.579107025164124
192 4 7 -2.387145924005177 -4.6229686186264995 25.38877210661731
193 4 7 -3.5258225270478523 -5.213277509627889 24.572327456275186
194 4 7 -3.2987702485573345 -6.878325026842388 23.205264994355716
195 4 7 -2.1452207283637845 -7.7839683197636536 23.000329082364274
196 4 7 -2.8985163017672257 -7.0916409337455635 22.292067133084164
197 5 8 3.6997336170048327 -3.8977544063964737 12.457017333362229
198 5 8 2.5171023087900184 -2.904643680704994 12.005944432456323
199 5 8 1.3463451973705356 -3.0638169206067616 12.505450977821942
200 5 8 2.1847825251162445 -4.053217854696161 13.550764817626282
201 5 8 1.7167457605129035 -2.9795781284185945 13.718086119990883
202 5 8 0.4033880258877061 -3.2364841344800883 14.409074243227861
203 5 8 0.10601945872623043 -3.859315050044025 15.719882651541496
204 5 8 1.3601002691551078 -3.1839445567082802 16.22081445186342
205 5 8 2.566824334519254 -3.5496074327174365 17.564280944114156
206 5 8 3.514504272175396 -3.0555132569436 17.164875967165745
207 5 8 4.553853611817608 -3.146830570352367 18.368844473237708
1056 59 10 5.395798541125345 -4.242576805304822 17.705336260456818
209 5 8 4.150097368218521 -3.596046381993991 16.387961393461463
210 5 8 3.6842305201090784 -3.7955181940149223 14.957378284786355
211 5 8 4.912473311994972 -2.6230831817907085 14.225056227299744
212 5 8 5.395189331588739 -2.272878191882633 12.378165697696955
213 5 8 6.1723424351413865 -2.337701705822288 13.34766356418585
214 5 8 7.3021202539801475 -2.24309774158658 13.232541969255921
215 5 8 7.044964141520016 -1.03491415441287 13.04703196847899
1019 59 4 5.750537634009387 1.5497082741106163 12.306353868959464
217 28 8 6.345926936525838 1.2388386218018244 9.827431313296183
218 28 8 6.1464866052586835 -0.05792461430339502 9.247792890754912
219 28 8 8.272960806410367 -0.41107716213671736 9.865742173990881
220 28 8 9.304461455111207 -0.7819470156810646 9.356264654091262
221 28 8 9.084933488018796 -1.043062997849655 10.321416909075577
222 28 8 8.292193377659336 -0.39832520734288546 8.61686518637574
223 28 8 7.900102181984549 -0.8896001611237364 7.068959756433683
224 28 8 7.82794975937122 0.32198729853156627 7.044351478811068
225 28 8 8.125947778541185 1.2237147524830532 5.8583267208537935
226 28 8 6.766738458246611 0.8775781924510945 6.209603457707487
227 28 8 6.487790312965073 0.3919373159160323 4.932405041516125
228 28 8 5.398280676521073 0.9133871351253394 4.319182446761843
229 28 8 6.656186958600918 1.6652101073583632 4.7708376209261125
1054 59 10 8.689675709552127 1.1236538712364486 4.506635792164466
231 28 8 9.776281543423092 0.6577777119266579 4.571522028625352
232 28 8 10.846513795666931 -0.7538718488130719 4.602509808934811
233 28 7 10.24507628262885 -0.6555823492983945 5.504680604714586
234 28 7 9.494366888075584 -2.286025362622507 5.186953274479335
235 28 7 9.454042399569085 -3.5498825011663957 3.8291903619204577
236 28 7 9.33844525934908 -3.245986198515573 1.8111725841188149
237 28 7 9.059912750326987 -2.1520305567912796 1.1580167602946996
238 28 7 8.620938547447155 -4.12594158079124 1.1617260411456989
239 28 7 7.178109545811661 -3.1064990977155644 1.2440283284522198
240 28 7 5.978472302711351 -1.9992269301118732 2.889443769520479
241 28 7 6.217792742400994 -3.5523530535642243 2.8769475070048762
242 28 7 7.594891043229894 -2.677472560652038 2.8331350679753724
243 28 7 8.666206027444309 -1.344262395019339 1.9771098329325747
244 28 7 8.887338367442299 -0.24152427286449588 3.398510214516361
245 28 7 9.44138717268726 -1.100224965026452 4.122262639184527
246 59 5 0.5455763404981989 2.6852145984221796 5.220910955857649
1052 59 5 -1.7840325103916714 0.6340453335620119 5.462937216082006
248 29 8 -4.863660975903097 1.4530304401092102 4.21617997606928
249 29 8 -4.375771234220878 2.4667429060782373 4.710430201398768
250 29 8 -3.332510030335207 3.024552999057104 4.88885843578488
251 29 8 -2.532636591248321 3.808365845197247 4.975910307554363
252 29 8 -1.4864879987798902 3.303625996536544 4.740335678864454
253 29 8 -1.365801814967495 3.401054955707706 6.1678389602672805
254 29 8 -3.143713979659638 3.4393966840587833 5.842895619631666
1071 59 10 -3.952380824197841 2.7005349877418903 6.368042500026986
256 29 8 -4.227132136813099 4.522480875732664 7.007376355402718
257 29 8 -2.3429865422770817 4.983441712289333 6.761805591094031
258 29 8 -3.4369584157055266 4.76942004200091 7.824326851512732
259 29 8 -4.624744356135273 5.716038521266192 8.835163638331554
260 29 8 -4.448696967122856 4.626353147880936 9.192396270460153
261 29 8 -3.6218053013170186 5.689520256083725 10.220253296088192
262 29 8 -2.4911270136560435 3.9244808600237353 9.571081773745508
1069 59 10 -4.011293861509395 3.354877092879254 9.61207586800009
264 29 8 -4.04592718687545 3.3265468909378764 10.609744369737104
265 29 8 -3.1373862375523545 4.659869361756643 11.716865245725753
266 29 8 -1.5400972920701668 3.55542454030139 10.814041752400001
267 29 8 -1.909835286089473 2.7558919686862438 11.434448786025747
268 29 8 -2.0637473011622025 1.422151774142552 11.78792469289128
1034 59 4 -8.563027154248127 -2.50075645910584 9.642856275517307
270 43 8 -3.8595848656158775 -0.7479608348160698 12.580741374633762
271 43 8 -3.96034763783043 -1.3355158833745167 13.684230957713508
272 43 8 -3.062893917899599 -2.1936750903553435 14.27427482068868
273 43 8 -4.363889956060417 -3.3909886308192387 13.98624259407722
274 43 8 -4.086671273782804 -3.9493773138428208 13.057991951229402
275 43 8 -4.441445728065027 -4.534030652099171 12.180672614610558
276 43 8 -2.927738025507793 -5.25621444074059 11.475217390048353
1047 59 5 -4.027187597921005 -1.4332075957827892 8.685293873783648
1012 59 4 -1.6530594886789212 -2.3471483094587926 4.064405075913419
1026 59 4 -6.519885775203657 -1.98264355359014 10.239125571946705
280 47 8 -7.227497843383051 -0.4535834376031028 7.966959824607503
281 47 8 -6.787953320383262 -2.07124863771301 7.879321841490626
1067 59 9 -5.38545045784493 -2.5085545132290514 7.97756526764708
283 47 7 -4.503025751540436 -3.946749498764062 7.104808654363358
284 47 7 -3.805033426544161 -3.4173690219116595 5.5591856781788325
285 47 7 -4.835732205835427 -3.21561309900673 5.92899427438344
286 47 7 -6.32021634470772 -3.3753845013671704 6.146722847515628
287 47 7 -7.530204087039967 -4.0571080098272745 6.875809319207075
288 47 7 -7.88951294769795 -4.80881246448833 6.387690859327091
289 47 7 -9.074552846937234 -4.419239480465466 5.288278256458797
290 47 7 -8.33659784000872 -6.063960101684996 6.31175076177627
291 47 7 -9.12987125471591 -5.5987259410255135 4.728487944672909
292 47 7 -10.506635769791464 -3.8544686414518674 4.388375998580841
293 47 7 -10.43075779746561 -2.570071027001466 5.043380201006139
294 47 7 -9.368062158489746 -1.3893403793407086 4.303619755186053
295 6 8 3.832169270419165 15.660704146910822 8.292965293184858
296 6 8 3.7315924985263496 14.638331031179266 7.575883568928377
297 6 8 2.624487139532753 13.71525466890717 7.379831904528038
298 6 8 2.27613295597018 13.769350367871027 8.695660017078406
299 6 8 0.804969363934331 13.541838290145279 8.143464461504209
300 6 8 1.2805986346891467 14.540446237159106 8.310104598526621
301 6 8 0.675774368296833 14.624683449371048 9.496730767981733
302 6 8 1.0396307954037418 13.71286560556346 9.927677294171245
303 6 8 0.8023914512333932 12.541604794338303 9.927747190117305
304 6 8 1.8534050265099031 12.947592273686189 10.774798136663195
305 6 8 1.499984267401359 12.05807735373396 9.197098832246654
306 6 8 0.5689477058657736 10.826200113505525 9.4492897190346
307 6 8 1.748151017464876 10.700932004750932 9.265967756653323
308 6 8 2.153198146173654 11.460077237829008 10.257804386730632
309 6 8 3.277892803477409 10.45391124881742 10.031910429259684
310 6 8 3.5011918891219347 11.647816506178607 9.896733961428172
311 6 8 2.963756074304238 12.382476264783401 10.878579510501499
1011 59 5 5.003704736320774 8.43115770215934 8.066938935955205
313 42 8 2.824790904699884 8.28163213703327 8.119109897102248
314 42 8 1.8639816005039151 7.66545183202717 9.190499024060998
315 42 8 3.0184505866017965 6.93867101885112 9.759514424389629
316 42 8 2.7322517030216433 5.3422675570579 9.080101123402226
317 42 8 3.269383884183371 4.438611713269359 10.319993479369822
318 42 8 3.539717336607466 2.9003830244837228 9.153245705584387
319 42 8 4.646469451605253 2.019317820371094 7.729992825009428
320 42 8 3.7072652478473107 2.249561241692587 5.455736621012727
321 42 8 3.6961000445818835 1.33124195119805 4.8754598107121065
322 42 8 2.130998233804021 1.0165113560817856 5.661275207019703
323 42 8 1.639721000443722 2.3153678218443603 5.397604419378934
324 42 8 1.3839340924280554 3.1461448663245632 6.901929628147796
325 42 8 -0.22652316175938103 2.8499017502634003 7.027614857651394
326 42 8 -0.8884526095746228 4.887392836988555 6.560491139395285
1064 59 10 -0.14920758852395893 3.9523161096555017 7.264873146471099
328 42 8 -1.988089978276822 3.0331368282070494 7.4747091335517535
329 42 8 -0.4091792645467458 2.821878029241343 8.116118309588296
330 42 8 -1.1445999757053467 4.544404358054565 8.082612848805796
331 42 7 -0.013764344430049931 4.377483522428513 8.824345669948231
332 42 7 0.3032206971546303 3.141096600341088 10.552059600785448
333 42 7 -0.5931247721431839 1.907532434141842 10.89467382837143
334 42 7 -0.4304659533953859 2.783813346265794 12.209150647057195
335 42 7 1.2941300970116114 2.399405298122588 12.105121983272067
336 42 7 2.3050093110685252 3.0186992915193502 12.55532495426372
337 42 7 2.095601817117718 4.198909994901416 13.454190566048746
338 42 7 0.1416508018278674 4.354591277481464 13.907224181566727
339 42 7 1.141864327729682 5.264998218599449 15.17084202034884
340 42 7 0.3867219152322158 6.637609457965263 15.721857009232453
341 42 7 1.005491871565522 6.208345415704398 16.71936204418182
342 42 7 0.8774293711486196 5.898944281779497 17.75631841075776
343 42 7 0.11467104936780889 5.586363716780555 19.11423483707022
344 7 8 7.198484381139121 18.17466805822686 -7.592192515363095
345 7 8 7.843504010030062 18.685176862114556 -8.869172013264716
346 7 8 6.6832872646662125 17.887670756342157 -9.047268606366112
347 7 8 6.91209227719764 16.767079384372853 -8.469072439419168
348 7 8 7.773423874847695 16.9641556689961 -7.54971846085305
349 7 8 8.158899614377102 15.903593282777456 -7.522827439692967
350 7 8 7.883567386102516 15.608594509201573 -8.81411413377758
351 7 8 8.664111739554626 16.112406985976666 -9.53420747466851
352 7 8 7.540543285779173 15.995767912244673 -10.059911706765048
353 7 8 7.349744313074202 14.698540173890548 -10.908155285071023
354 7 8 7.812368419186679 15.36085020491742 -12.090947454335474
355 7 8 8.557508665375302 13.879325007976599 -12.704771501462638
356 7 8 8.294253599370824 12.007911800004576 -11.904814285636293
357 7 8 8.597003344699868 10.60272215144172 -11.923594166805906
358 7 8 7.439371220023874 9.557634710177114 -11.040799530554095
359 7 8 8.806968522338114 9.833272250343006 -11.194055412158038
1057 59 10 9.230270767152867 8.49081898839793 -11.770493026688136
1048 59 10 10.405684315356734 8.414310011307736 -12.495364308497095
1066 59 10 10.887888755084157 7.328152799376122 -11.810507637788104
1051 59 10 11.086155779889427 6.540112815902711 -13.315915661019607
364 7 8 10.386938550772062 5.998119716277231 -11.987852462612448
1063 59 10 10.458425271599092 4.887439805912542 -11.366001183876719
366 7 8 9.30531218161158 3.6197323734272886 -11.14607170425867
367 7 8 10.30353656284168 3.7499324117978188 -11.527770074199172
368 7 8 9.7070507893513 2.8674746013428134 -13.148684681217887
369 7 8 7.836533229020439 3.3028739251777197 -13.763367516504447
370 7 8 8.59060965892173 5.413795499086659 -13.384765131178662
1038 59 5 9.510594138279858 8.04671963215447 -14.230480463228387
1035 59 5 15.00030094318114 5.163422387142841 -16.99194448921227
373 39 8 13.487556923133976 5.664515113142863 -16.521397948302596
374 39 8 12.811941339556014 4.603340773463598 -17.370672977600524
375 39 8 13.247446098428474 4.104705151408658 -18.99896455858627
376 39 8 11.069241381553105 4.729187263732607 -18.80743438694768
377 39 8 11.325042198977863 3.2667234861382575 -18.342738073088082
378 39 8 11.610311492524076 2.061094060943952 -17.598455436156055
379 39 8 12.525693223937168 1.8406910145132391 -18.311339515344187
380 39 7 12.421454168296547 0.976190622655906 -16.77371457062343
381 39 7 12.182596021585704 0.6056975314054417 -17.86594815159375
382 39 7 12.046162450024308 -0.8859686328950253 -18.40305678562054
383 39 7 12.563756808916597 -0.29810538987666574 -19.154893919452334
384 39 7 12.98816540900193 -1.2965275432494685 -20.748637946841477
385 39 7 13.086922303614566 0.49309799518146374 -20.56535976797106
386 39 7 14.834217416246956 0.0902097114353203 -21.221613683550302
387 39 7 15.367757389929249 -1.126141534741319 -21.51473150022468
388 39 7 16.17930840477662 -2.8733010324144117 -22.69335671608346
389 39 7 16.279094318973893 -1.8653525789524728 -23.023435891306768
390 39 7 16.29450178599021 -0.34916013875042856 -23.001471316700965
391 39 7 17.313861248357043 1.2243336626754824 -22.89865054096926
392 39 7 18.16634438933165 0.8439027080214073 -21.80509174073127
393 8 8 -4.857189812339591 -2.3199661063039296 -16.36205112776287
394 8 8 -6.1926033324882175 -2.8162156570554857 -16.957300505571272
395 8 8 -6.361794032900681 -3.8031447343194063 -15.223385265733667
396 8 8 -6.9139488807248055 -3.984917352273887 -13.821672702000836
397 8 8 -5.638182698244008 -4.646339040417963 -12.814965845015987
398 8 8 -6.927236369414679 -3.126367742774448 -13.055320753985919
399 8 8 -8.002027648524743 -2.6476140862861173 -12.345105530088079
400 8 8 -8.06562366529348 -1.2403925115205374 -12.428395714006477
401 8 8 -6.058369741827344 0.03701261898808131 -12.057853470735594
402 8 8 -5.66386394500804 -1.0820329050390485 -10.876595231215273
403 8 8 -4.354477114855694 -0.8299550550605174 -11.335026154079198
404 8 8 -3.4970519553177595 0.471748998877447 -12.262291019720145
405 8 8 -4.730375187840618 0.7129410539250415 -11.225647922881667
406 8 8 -6.71696158510933 0.3387144100324516 -10.393502791783892
407 8 8 -8.206195848040185 0.4506766080898255 -9.8160835138957
408 8 8 -9.289075480961513 -1.212347664931075 -9.020514999779959
1010 59 4 -2.5879136798995894 -0.3657732733032175 -10.40487197182158
1022 59 4 -7.5395739735333205 0.3658272624454667 -6.966593142183175
1016 59 4 -6.595897128372545 4.6070217747158315 -6.132110546910425
1029 59 4 -3.5471994213142506 -3.3817184556484214 -5.817675946502715
413 49 8 -4.297909872720857 -2.8137937924669614 -7.795075141447518
414 49 8 -4.580304273862039 -1.1667071570871947 -7.9712510382757
415 49 8 -6.051080545568249 -0.8047291854105405 -7.105472207169178
416 49 8 -7.808443037192639 -1.4543444321450605 -7.704619211606143
1021 59 5 -8.600040677814443 3.5269361421545167 -8.792750708225633
418 30 8 -7.100201043492898 -1.6999961928482858 -5.196626738531618
419 30 8 -7.373045153532563 -2.3874450323033454 -3.8700533504296137
420 30 8 -8.695204399352688 -2.153289231230232 -4.260276796307114
421 30 8 -10.358630476943516 -2.0406718789591047 -4.423654452155271
422 30 8 -10.958771967601004 -1.7999556543314437 -5.743895618633994
423 30 8 -10.168093433102218 -2.5591572735903725 -6.693029760896979
424 30 8 -10.874846765018289 -1.7190767465403873 -6.9645272937153315
425 30 8 -11.241906609509726 -3.321498550037242 -6.338303113175828
426 30 8 -10.583071069867012 -4.12628543244424 -7.798761570768757
427 30 8 -11.71068264717596 -4.755251668647603 -7.888489655891684
428 30 8 -12.47449813454364 -6.000032783906628 -7.401625205601307
429 30 7 -12.672610261374562 -4.91865446881869 -8.180926086690523
430 30 7 -14.034870593638104 -5.220521910128464 -8.538747624700767
431 30 7 -14.816127067600505 -6.48819849901039 -7.667289021755012
432 30 7 -13.07787520672162 -6.862202857187202 -7.299877348468827
433 30 7 -13.161641511483047 -6.626055889287861 -5.848209949086808
434 30 7 -12.681959139556152 -7.598539892049126 -6.540740356864656
435 30 7 -13.263716957634317 -8.20721962857532 -7.831515318923536
436 30 7 -14.42119250288746 -6.41084708357267 -8.631450557491984
437 30 7 -15.497026947117954 -7.317825095659922 -8.36226111411448
438 30 7 -15.13071453687731 -7.891510957653544 -7.385290288247115
439 30 7 -15.462735564445808 -7.324655187071155 -5.334147067793084
440 30 7 -15.424804327821155 -8.357298484344692 -6.026037780011866
441 30 7 -14.898996660837826 -6.5001401070470095 -5.574633508432641
442 9 8 -0.6354404314533101 15.599002702031363 -0.4390024845257922
443 9 8 -1.2887435358169252 15.991876145775402 0.4388167464046895
444 9 8 -2.359686287176829 15.869470924439137 1.5639107343766823
445 9 8 -3.128978765162636 15.826271684548189 0.03965447593378879
446 9 8 -2.011725255174808 15.468247066253223 -0.5601595321155651
447 9 8 -3.474687513897127 14.538744196493955 -0.7419229424862295
448 9 8 -4.668997962079608 14.573805005697356 -1.3696626559496319
449 9 8 -3.9335042323985934 13.885112342509736 -2.908264826847806
450 9 8 -2.711432985024526 13.635090603320155 -2.9975792283298297
451 9 8 -2.146251658473279 12.363540099811754 -2.0332191530788988
452 9 8 -2.1363427801722215 11.228878179775664 -1.3659894551127805
453 9 8 -0.6261440020778752 10.54020806173548 -1.7145016042564734
454 9 8 -1.213272789862031 10.887100787559927 -0.9386077347130422
455 9 8 -3.4421492556251545 11.405890015412334 -0.6722082108100405