# Generated from readdy-to-lammps

1005 atoms
718 bonds

10 atom types
1 bond types

-30.0 30.0 xlo xhi
-30.0 30.0 ylo yhi
-30.0 30.0 zlo zhi

Masses

1 1.0
2 1.0
3 1.0
4 1.0
5 1.0
6 1.0
7 1.0
8 1.0
9 1.0
10 1.0

Atoms

1 1 8 -15.444787636044712 -10.235554644032717 -12.536364411330226
2 1 8 -15.237728064140336 -8.499442833229773 -12.990804988058294
3 1 8 -14.959061302014124 -9.523660312433758 -13.295915519702062
4 1 8 -13.536585317440887 -9.702407939738444 -14.60006956800319
5 1 8 -12.30498601524748 -9.397160313037658 -14.852707609720113
6 1 8 -12.342191223502649 -8.088461660970214 -14.159787665014054
7 1 8 -11.673922664546431 -7.385521544502357 -13.638990925440478
8 1 8 -11.077847538458812 -5.732618665811811 -14.299277843180219
9 1 8 -12.000384175928383 -6.162970419171862 -12.940931746519128
10 1 8 -11.519340817832656 -4.443210725656944 -11.45597941027468
11 1 8 -10.745073873210425 -3.884591367772677 -10.787760093868362
12 1 8 -9.467212245081917 -4.97412520376845 -11.117746553099309
13 1 8 -8.929912221201302 -5.988041389445419 -12.573942058937437
14 1 8 -8.396553201901973 -4.84498803615942 -11.699617700949604
15 1 8 -6.964196139687413 -4.2245914472992325 -12.294466194027237
16 1 8 -6.977313434978182 -5.219471898730585 -13.559765765910557
17 1 8 -6.877245756951635 -5.284351807657517 -12.186081921050112
18 1 8 -7.044343107514849 -5.629013274932757 -10.624409768867908
19 1 8 -7.821776405199719 -6.962876000264254 -11.541716232756322
20 1 8 -8.641691491643225 -8.024437989023905 -10.12324232190231
21 1 8 -9.9919855825484 -8.663785525530612 -9.48504630698482
22 1 8 -9.08202147464652 -8.43639822303212 -8.425343118391227
23 1 8 -7.944773275678062 -8.500672673796862 -8.193282157666339
24 1 8 -7.7031757976481385 -9.55959709425864 -7.609874492237441
25 1 8 -6.7888937032628895 -8.363885634014677 -7.600185945774611
26 1 8 -6.928673018454421 -7.180125354993372 -7.6058220412090805
27 1 8 -6.551149746707817 -7.609648972146211 -6.530337230877907
28 1 8 -5.318249856140373 -7.576521649813642 -6.327574524959005
29 1 8 -4.513621981741097 -7.7578674123882605 -7.56395535007883
30 1 8 -4.292363495839218 -7.482155643418857 -8.657311304809436
31 1 8 -4.138004921866404 -5.324245179654831 -9.869131146207573
32 1 8 -3.8337843469081565 -5.740893099857934 -10.884041053699743
33 1 8 -2.218168973205541 -6.05622631525357 -10.08380514874365
34 1 8 -2.2190604879059714 -5.608270459286754 -8.71811666863322
35 1 8 -0.8779974643508903 -6.064937760786228 -8.862882186889596
36 1 8 -0.20251253757957335 -7.15673454519775 -9.189354614102912
37 1 7 0.4584488263210279 -7.422591168006724 -10.233668925117614
38 1 7 -0.12355509624998397 -6.721050458988977 -11.14394405154508
39 1 7 -1.233161869239073 -7.342060512679448 -10.651789841511174
40 1 7 -2.7711496790154007 -7.282415716533276 -10.538109183334623
41 1 7 -3.5552130527752346 -6.540384913116675 -9.932518421833935
42 1 7 -3.515595651509656 -6.832943038046693 -11.128296751745237
43 1 7 -4.196349461899238 -6.849142771898312 -12.486345451946441
44 1 7 -4.504414470545636 -6.790138161495964 -13.57704911941732
45 1 7 -3.316326296435794 -5.555482440246644 -13.476851278542785
46 1 7 -2.250153708871627 -5.0873575363890255 -14.821826908444002
47 1 7 -1.0913914420482356 -3.884432969852691 -14.535775148270023
48 1 7 -0.8494230332634612 -2.314083936965525 -13.706957116169225
49 1 7 -1.8590092277902979 -1.4878536171640144 -13.730775397533256
50 2 8 0.6801220278030637 -1.5602177890041817 -2.9080493701285373
51 2 8 0.6177642010316068 -1.6295240658239019 -1.393871100715629
52 2 8 0.6436415928498807 -2.906546660230248 -0.7396723890447892
53 2 8 1.6169515658594233 -3.526597582090964 -0.22401111772594848
54 2 8 1.4307277075625078 -4.9194366309821405 -0.3496923365740296
55 2 8 0.17376954006628983 -5.152592523383083 -0.22964075019082147
56 2 8 1.1592185889735658 -6.14011427811352 1.2309233296991655
57 2 8 -0.01395748496638416 -5.755221158331062 0.9682659505240111
58 2 8 0.5265478606250534 -5.9427590198470845 2.1891858095816836
59 2 8 -0.219621381198255 -5.709613647208701 3.63494613709967
60 2 8 -0.3443997127157391 -4.964424943707319 4.757108845650754
61 2 8 -1.6358012768623038 -3.8549697311696915 5.466959715244849
62 2 8 -0.9438846751175118 -3.1325890087562116 5.004000028328156
1007 35 4 -2.4876943616324136 -4.908969802838744 4.076260441961471
64 26 8 -1.1316137761546667 -4.616184153117417 2.6170991911775605
65 26 8 -1.4638205341100023 -5.516656403463408 2.0603998318005172
66 26 8 -2.058640300448451 -4.591033133742036 3.1148371183053105
67 26 8 -3.01446574993919 -4.9393809388915155 2.829095209669439
68 26 8 -2.677332382032887 -3.3399415211433894 2.546743484959711
69 26 8 -2.762232086339731 -3.680181594437946 3.5880316819115823
70 26 8 -3.1966010575054957 -2.748555468169423 4.9555439837777095
71 26 8 -1.8879185649457844 -1.3777158418255924 4.83725867310507
72 26 8 -1.2087690641649267 0.19843366656233 5.083115390122077
1009 35 10 -2.457966417827675 0.40517054565103044 3.595963295769868
74 26 8 -1.6977158591386703 -0.6065279951588795 3.2084531111186454
75 26 8 -2.8110952011864985 -0.911841410674199 2.2625094679290503
76 26 8 -3.6619683314828837 0.4607058809648244 2.009815325322631
77 26 8 -3.9843210523332 1.7351608410273112 2.4507741959258573
78 26 8 -4.865836483438844 2.4621460564154467 2.1128379994793667
79 26 8 -4.722596142333986 0.5804963947521705 2.8098341228164276
1017 35 10 -3.8412095024055293 0.6674934620310997 3.7758964132759263
81 26 8 -3.4771196691035295 1.6522607244712053 3.3975689060232126
82 26 8 -3.517441329269325 2.7175228675728413 2.6891969694576536
83 26 8 -2.8452555427247517 3.5266969757235587 3.0334171429650003
84 26 8 -1.6532546523456 3.650463167186719 2.8766604153248023
85 26 8 -1.9586621443498644 1.8739875450247132 3.5449376443974256
86 26 7 -1.2565551377820543 2.257656365372 2.8636463216520296
87 26 7 -0.686735334021908 1.1657422562005422 2.2181172816535666
88 26 7 -0.34138801256929513 -0.4814168133352679 2.386103930589049
89 26 7 -0.049454155318880186 -1.9316866448438899 2.3800623872301068
90 26 7 0.5834876899647248 -1.2554795411997843 1.4270390765602057
91 26 7 0.2217849420732307 0.1838725537449032 0.9992779280069843
92 26 7 1.5587458427381393 0.3655349697336221 -0.014032445276579293
93 26 7 -0.5812885774044523 1.042692883022306 0.7776325689190028
94 26 7 -0.8542954788716663 0.2737478106215102 0.4442017430322409
95 26 7 -0.42320220851541146 0.3529386567604364 -0.6154954311607455
96 26 7 -1.791103664295431 -0.41496648032901107 -1.295087026046061
97 26 7 -0.8110606422698258 -1.7488002501063606 -1.2975695460222991
98 26 7 -1.2790232684554435 -2.561518003474253 -0.4781984331582655
99 3 8 -0.8249411055846159 -8.017359473152927 -0.24904633102524804
100 3 8 -0.8837776400258563 -8.394460396274452 0.7159658545390445
101 3 8 -1.6539984124600018 -8.398733891737788 1.6715653395424603
102 3 8 -1.5537047582716446 -7.462041970045606 0.9753293593241095
103 3 8 -2.78977160405607 -7.535133331324871 2.4596238612744505
104 3 8 -2.635353915366024 -6.296639263173222 1.773176803982726
105 3 8 -2.9107619322165257 -7.253923132051224 0.20078726123228413
106 3 8 -3.513135479010862 -6.896053601015913 -1.212674261120464
107 3 8 -2.9740518574174057 -7.777731303633416 -2.2952080608622265
108 3 8 -4.065800928061407 -8.013712246513682 -2.178490892264579
109 3 8 -4.271066625833493 -9.646144149032798 -1.7471069289446899
110 3 8 -4.78743344141118 -8.765215855557535 -1.6299968638117748
111 3 8 -4.972261206674987 -9.921706102357561 -0.8473244738707852
112 3 8 -4.646981446267029 -10.65666457118974 0.3986773384158661
113 3 8 -5.741096105942354 -11.198098572836237 0.9034445415102484
1024 35 10 -5.493497635276718 -12.403753200154885 0.10484956008315066
115 3 8 -4.61520390967628 -11.696333837779013 1.6339865722224765
116 3 8 -3.88762182701579 -10.317238059445467 1.3297592574383386
117 3 8 -3.144090295193921 -9.349114788482542 0.8740703894890642
118 3 8 -4.696061094861538 -8.191762269536511 0.4026023447418989
119 3 8 -5.277335971370104 -8.523230513829379 1.7744736944989385
120 3 8 -4.398286411179115 -8.474473096258134 2.922935525848171
121 3 8 -3.837792359597051 -6.787307747267397 2.772077650810159
122 3 8 -4.527383244952788 -6.968643604495777 4.425814630790486
123 3 8 -3.910994157524058 -8.159281649913167 5.373344191580142
124 3 8 -2.8613400357411636 -8.424271401884125 6.448776468156413
125 3 8 -2.917151431250507 -8.297171171963871 4.58623455754744
126 3 8 -2.9240691330909017 -8.395720323679388 3.136039823996319
127 3 8 -2.3916314518133253 -9.806969605812208 2.4988453699761033
128 3 8 -3.170878124973271 -10.860490669460516 3.5785878705899123
129 3 8 -3.633982865850987 -11.622687824679765 2.6925055421971655
130 3 8 -4.78653097731648 -12.685764314346558 2.5623254068585117
131 3 8 -6.2749345354951735 -12.927747385608933 3.615021855444641
132 3 8 -6.9594314553055 -13.920444570130941 3.911345097444884
133 3 8 -6.755296326816794 -14.507204701128662 2.6649055301787117
134 3 8 -6.154257576366189 -15.125341827050768 0.979171386176094
1025 35 9 -4.595822594832698 -15.007979804911487 1.5013605797957787
136 3 7 -4.794352710337317 -16.33212820607971 2.0317708449434444
137 3 7 -5.311590783299272 -16.296318246340824 0.51442780894942
138 3 7 -6.225826734597628 -17.228265022306253 0.29829887881645073
139 3 7 -4.836006596502804 -17.54791532838787 -1.5518843363730135
140 3 7 -4.215469626817346 -16.34312677167991 -1.0754447663379403
141 3 7 -2.5632124495708504 -15.797543780943133 0.21501815145119546
142 3 7 -1.9824743299457785 -15.297887760896486 1.07691881617746
143 3 7 -3.239230257122494 -15.546395874282739 2.044401517143546
144 3 7 -2.196003244958877 -14.535623362676608 3.571185384184257
145 3 7 -4.140697074063701 -14.533140277119005 3.1371562040691487
146 3 7 -3.4243160357551288 -12.99570965426314 3.5591535993263728
147 3 7 -4.217641390674244 -12.279499909105706 4.028204650143219
148 4 8 -0.4494427771143007 11.099045667008921 15.850035496068822
149 4 8 -1.0030555548787536 11.64964726862665 16.799910526441487
150 4 8 -0.5375707713392516 11.061253977491807 18.57314503011944
151 4 8 -1.4281043029496159 10.532477247250709 18.425668416658247
152 4 8 -0.8566614805966185 9.664139785318184 17.584538002686607
153 4 8 -1.4845941020797648 10.20239833063026 16.63150017795454
154 4 8 -3.026919203168476 11.123055665432203 17.456139221314892
155 4 8 -2.9688939881797647 10.031238083914266 18.053390183962716
156 4 8 -2.931311420034546 8.8218497707557 17.329315843723105
157 4 8 -3.8423290140810917 7.822751106334685 17.173451198810948
158 4 8 -4.68533770500874 7.02700937446814 16.423418858891868
159 4 8 -3.295463258097052 6.473474974212243 17.262839379567904
160 4 8 -3.4836507367195124 6.338969814873351 18.669624507670513
161 4 8 -2.2254692120591555 5.560261328367823 19.789482722350492
162 4 8 -2.5357667466426275 6.447692639921838 20.576530008629774
163 4 8 -3.803069693487993 5.6851117963936835 21.55063280482482
164 4 8 -4.835890051359534 5.964093346644308 22.55133171246684
165 4 8 -5.069528871497166 6.57063506389032 21.417428384587353
166 4 8 -4.7557991870230465 8.115318337919497 21.70533183889554
167 4 8 -4.762344423330762 7.833423728138699 22.83285229931658
168 4 8 -6.00661156913781 7.130367226643168 22.48101098683334
169 4 8 -5.41597437520885 6.81365714078053 23.64043173449354
170 4 8 -6.066311902274658 5.6630857619168005 24.56855898785083
171 4 8 -5.923646213959296 4.813740364794589 25.657915841590174
172 4 8 -5.167796699477026 4.316880633310601 24.35702647096402
173 4 8 -3.670879760402498 3.9420501855465253 25.502691791406352
174 4 8 -3.9186193663388864 2.0659808865544154 25.741951989154796
175 4 8 -3.3313251023991723 1.1103923872188863 24.396640694323477
176 4 8 -3.0766238591474653 -0.5614387042039277 24.67730726244816
177 4 8 -3.7471299068022907 -1.0317212594071057 25.436004499448508
178 4 8 -3.3011870476766685 -0.07345609418489339 26.68304077402082
179 4 8 -4.329280472764377 0.05245553746720663 27.147927101631968
180 4 8 -4.451430912342772 0.0918310049037989 28.38978752773159
181 4 8 -3.978598878619442 -1.1385454009200897 27.473087816048658
182 4 8 -3.1491458972494195 -0.07732591407746452 27.774917120700362
183 4 8 -1.0491773444880281 -0.7464200034651413 27.91092137800779
184 4 7 -0.15864811273443669 -0.4551183700464184 27.117883557155846
1028 35 9 1.269401767027547 -0.9695705284566294 27.5453332332576
1023 35 9 0.8608765220696841 -2.280982886822045 26.990788796387843
187 4 7 -0.6411111659572467 -1.6936581921713145 26.68769415839806
188 4 7 -1.5765778804068251 -2.8287569344483274 25.406318440429054
189 4 7 -1.7115031542557737 -3.179016608905045 24.347358505478216
190 4 7 -2.7518755225816176 -2.6756373057505645 23.573943344344947
191 4 7 -1.1359536787296738 -2.6274263808011047 22.225443285095874
192 4 7 -1.7533599658963916 -4.047700029580211 22.01175065252315
193 4 7 -1.3233778797138338 -5.451888913372452 21.60008944575633
194 4 7 -0.5362881965353851 -4.651025841359743 22.73804713454901
195 4 7 -2.0076651496621953 -5.688578649804346 22.551366806425733
196 4 7 -0.8537287718922512 -6.436726945201503 22.635767930092587
197 5 8 0.702444067255875 -4.399502531796215 13.53957038014673
198 5 8 -0.2500382769801644 -5.392994293688306 13.323702338046344
199 5 8 -1.2571158009718633 -4.007263487935648 15.140139476374175
200 5 8 0.17006353912226477 -3.672219597217558 14.032664092144326
201 5 8 1.8172302086832133 -4.312719991805216 13.99609613498162
202 5 8 1.7892396502972658 -5.103129990023058 14.928038206863077
203 5 8 2.918768691457486 -4.29456114550088 14.951035861472143
204 5 8 2.743094534379976 -3.9209829025373146 15.949139678114559
205 5 8 2.712870975330979 -3.1278773936027084 16.773857572825765
206 5 8 3.3785187349784103 -0.5324080015001056 17.081291701210176
207 5 8 4.535962507546191 -1.4914344590470485 16.251091883194913
208 5 8 5.485235902718731 -1.8961889333502062 16.95325940383006
209 5 8 5.34058552739009 -2.7066588374436407 15.702335329083768
210 5 8 6.369443630209641 -3.250806807933347 15.705297606411273
211 5 8 6.181468170664008 -2.347429503652654 15.032107236417353
212 5 8 7.471266885160144 -3.0423866269047712 14.50507022681566
213 5 8 6.806246237425976 -0.9750789862969913 13.396758674718155
214 5 8 5.763022502614111 -0.2616754678539972 12.326222961337226
215 5 8 6.920949555985558 0.6294571221074045 11.572389918163998
1019 35 10 7.5062166370781815 1.6315823733383015 11.73662851884807
217 5 8 6.436844348329597 2.1527004209834635 11.47691353429015
218 5 8 6.559686154251646 1.0805271079209604 9.942715486810387
219 5 8 7.230340626776644 1.9613308398759686 9.23153906704948
220 5 8 7.580926822753391 1.0434028469112984 8.823914978356447
221 5 8 8.07260792390038 -1.0212515230114183 8.581462080907304
222 5 8 7.289531065918461 -1.2410953449662208 9.43174727135904
223 5 8 6.847625980957678 -0.23084923689401954 8.511643138500201
224 5 8 6.888085578557719 -0.1571777311881753 7.1185510183619725
225 5 8 7.870420765869281 0.7928874268975541 6.482018044196083
226 5 8 8.639500786468586 0.958692124940166 4.935521016146685
227 5 8 7.1292496355740065 2.10613215673492 4.545953784636004
228 5 8 8.409913355407912 2.8820639057622564 3.5269397007783483
229 5 8 8.255659933701839 1.7747139347666723 3.87286316162766
230 5 8 9.466448237185855 1.3184980251064293 4.165883909534403
231 5 8 8.831588497570209 -0.4483426475839978 3.502839095884902
232 5 8 8.061095271516743 -1.2002858627118604 2.7915675636015362
233 5 7 9.130555740175726 -1.547944186184532 3.0689697527970936
234 5 7 9.565234080685874 -2.3804078436823404 2.2787777216134377
235 5 7 7.460159756199973 -2.9115576235724 0.796783364701313
236 5 7 8.128706638097594 -4.681370944072614 0.030043093900732898
237 5 7 8.231051227658908 -4.10277143288139 1.0963698774175985
238 5 7 7.31965168371245 -4.688572189198669 2.1557843328110864
239 5 7 6.027721372497719 -3.969933249443618 1.062750469785379
240 5 7 5.586273886739106 -4.240698245234482 2.1375753151421786
241 5 7 5.630075591844955 -2.5963665408423875 1.4449706219643708
242 5 7 5.903546433737389 -2.7082429485930546 3.5303147555811556
243 5 7 6.393257859332956 -3.118528227870763 4.756818270363846
244 5 7 6.509721562944104 -1.7172470738837344 3.4347118682807363
245 5 7 5.345344574719426 -1.6724513858127967 4.387608887861689
246 6 8 -1.3419298893356135 2.1372826283524837 4.713503935867195
247 6 8 -1.6821245090883354 3.350146213308583 5.054101090767235
248 6 8 -3.0997897985388083 3.630513459130498 5.183980043997636
249 6 8 -3.7240274682235297 3.5025245668286433 3.670907287511845
250 6 8 -2.2567904356170145 4.564343492134731 3.159596248648386
251 6 8 -1.4143763103786127 3.938223605770839 3.8626256282545315
252 6 8 -0.4891501740950691 3.024800473562448 3.6885453193609217
253 6 8 -0.5089511037206511 3.934922746423465 4.509951199598634
254 6 8 -0.7665648047513731 3.7107422881652528 6.3127217948070635
255 6 8 -2.845012219029577 3.2763580383040622 6.410661284976132
256 6 8 -3.517952221682635 4.48925372583227 7.0089240903143
257 6 8 -2.7794897580247055 5.734489236846912 6.775626047130461
258 6 8 -2.626148550504889 5.69646844943651 8.02919835724242
259 6 8 -3.7035671329035513 5.735481912530882 7.956209258560049
260 6 8 -5.09433870052058 5.964060768296555 9.4889991105191
261 6 8 -4.406363174167033 5.155788223303295 8.639024325909176
262 6 8 -3.232344914104544 5.264955496085225 9.585291898404153
263 6 8 -2.377721300455745 3.8941752138276624 10.457658949850277
264 6 8 -3.5526915181909553 3.078891507807541 9.892156637204092
265 6 8 -2.986780640710503 2.016438164787991 9.21210309192935
266 6 8 -1.3526402387413468 1.351366258127331 9.886231340087642
267 6 8 -2.375240740966468 1.1661387332003499 10.563823643024698
268 6 8 -3.648089282499173 0.45676928565342095 11.409548599092249
269 6 8 -3.0849381309264596 -0.11123299498339925 10.568970293631493
270 6 8 -2.593196418779291 -0.3101478831115898 11.648513078252448
271 6 8 -2.9192842868849995 -1.9388610542287388 12.026132499575528
272 6 8 -2.677912319354114 -3.0837856552147334 12.402231138229466
273 6 8 -3.6531433145575125 -3.5380549129119485 12.783354662955755
274 6 8 -4.191698878508552 -4.0145418752112825 11.54564033561143
275 6 8 -3.207716104780328 -3.7923447038133205 10.244503038083778
276 6 8 -4.79964967687577 -2.9915312562245173 9.390350401633414
277 6 8 -3.166121333975367 -2.6295218426212803 9.172171646207245
1012 35 10 -3.5666942458640545 -2.0668331193925376 7.6767667013797505
1026 35 10 -4.77135366976625 -0.8424995341034822 7.624653393875652
280 6 8 -5.4815967128320455 -1.9337131612239407 7.15202146006227
281 6 8 -5.777440856216871 -2.6435506322030147 8.071362047580347
282 6 7 -4.880071962440417 -3.209780376348734 7.234820261449087
283 6 7 -4.062243641322594 -4.05130983740935 7.528364620669013
284 6 7 -5.345787985859317 -3.9301034781259694 6.083922757875205
285 6 7 -6.548810935862037 -3.374175184296389 6.442894182664396
286 6 7 -6.328122691366277 -4.357466780755226 6.794204704337272
287 6 7 -6.037436018185013 -5.599003016128599 5.826304908560917
288 6 7 -6.29665105267621 -4.725187744969007 5.418649249622801
289 6 7 -7.579601084641489 -5.196288231623392 5.890810122577683
290 6 7 -9.465208557236181 -5.886140938654189 6.0223304904363015
291 6 7 -8.593739395987566 -5.71779351385175 4.722633725072908
292 6 7 -9.668794812409276 -5.119281493921522 5.165748398040136
293 6 7 -8.600209440528127 -3.9510232333136908 5.60782739602731
294 6 7 -8.231168144266947 -3.599425427434405 4.265078443846972
295 7 8 2.992209779318242 13.396527104509806 6.673457261063608
296 7 8 4.2296130890002095 13.26229526535416 7.946910224166144
297 7 8 3.319314726401945 13.191498453601273 8.888978842746022
298 7 8 2.3981184555405806 13.118470074335695 8.25962542647298
299 7 8 0.4000348040640083 12.502362303687255 8.15772372453731
300 7 8 0.9643702198713016 12.905031511269964 6.8586634563391975
301 7 8 1.186667335553181 14.077201111454395 8.362517187194774
302 7 8 2.0846868678164427 15.082520169387957 10.248782028180566
303 7 8 1.3086027488938685 14.633045638203049 11.39342644027824
304 7 8 -0.5894250974057386 14.287874152257945 11.117736523613376
305 7 8 0.8039470248179822 13.167303804862817 11.502618470499758
306 7 8 0.4229395211349244 12.248647799417471 10.961768405559447
307 7 8 1.6881959522526977 11.361544725160371 11.242832106897255
308 7 8 3.1118578829281396 10.933017173745023 11.035730180510367
309 7 8 3.3355159046677287 9.733978029186492 10.8492848466494
310 7 8 4.229216842158922 9.759949624714821 9.584246774509344
311 7 8 4.958313589121035 10.187529939552403 8.018994950473878
1011 35 10 4.648257307227798 9.17135970490503 8.244893352446718
313 7 8 4.1729521347683995 8.237012278584471 9.132083350222171
314 7 8 3.946811593689099 7.550028630644583 8.240306168564045
315 7 8 3.1427877478358104 7.908168510969598 9.124606610456503
316 7 8 3.0115355224751146 6.936346342187091 9.917919181961857
317 7 8 3.002656278412649 5.345499047363415 9.217980664021907
318 7 8 3.0153982277264193 4.050273460933266 7.885660253675453
319 7 8 1.851931652085503 3.2580640582637725 6.565517417122119
320 7 8 1.5829017360577768 2.404151446948995 5.364987924810935
321 7 8 2.810171856913123 1.310773638042248 6.100782418394961
322 7 8 1.0797972313439148 1.7560159092910685 6.381729461216736
323 7 8 0.3051964925439325 2.4439147891765813 7.083688010809105
324 7 8 0.7756565852584291 3.051142318189473 5.919147572275575
325 7 8 0.10745010135479847 3.2105835811238026 7.728057876667982
326 7 8 0.4940900821357109 3.935747271022725 9.08532950721811
327 7 8 0.9130100376500004 5.300880566554874 9.27028888396969
328 7 8 -0.26918372144053165 4.660475472052761 9.111000675095069
329 7 8 -0.512530292088049 3.05176614681097 8.979429643153455
330 7 8 0.1903997648982685 3.0027382011071846 10.078614394758876
331 7 7 0.5517284515800088 1.8917319791042075 10.643069265053072
332 7 7 -0.3479020466849147 0.8891826474332946 10.124013506674565
333 7 7 -1.091255638015085 0.7563045668303765 10.95211435143044
334 7 7 0.6105234698129852 1.6341588673944996 12.224556961346948
335 7 7 -0.03452542059445735 1.3025332507164469 12.975612250371166
336 7 7 1.5513457178223014 1.9724241204816815 13.656403680250138
337 7 7 1.7308756951174127 3.3878029144786352 12.36423358864847
338 7 7 1.634105347182304 4.763626825571502 12.418324756405292
339 7 7 0.5544099494868696 5.524882123809748 13.126419850146808
340 7 7 0.05620004643421456 4.354106797328123 15.256768064629304
341 7 7 1.9024462676036438 4.865844459946058 15.721691554475893
342 7 7 1.866061856339975 5.82986663675939 16.568436980258745
343 7 7 2.867956733499872 5.366139761061666 17.450779185279835
344 8 8 6.728800273750922 18.54382212301895 -9.515555447526765
345 8 8 5.670612681802841 18.63851248989563 -8.339072298122009
346 8 8 5.843179965733101 17.095938657371963 -7.4433958556223105
347 8 8 5.628233719022308 16.025887552469936 -8.840177618596647
348 8 8 6.4483454863229746 17.740924439357705 -8.62904228782684
349 8 8 7.11487580565547 17.199244109789177 -9.458142824664069
350 8 8 7.513745149637175 15.893343727994727 -8.24489963114131
351 8 8 7.009566287204532 16.183039651746924 -9.708288605457387
352 8 8 6.311787571226303 17.075567062910075 -10.250854217270494
353 8 8 6.5357346956998725 16.245217486074118 -11.964102116150405
354 8 8 6.986308287797186 14.956867242311697 -11.532768740085602
355 8 8 7.750096288237378 13.905803946150007 -11.018646538800686
356 8 8 7.221596281300838 14.74720956278779 -12.838129006923563
357 8 8 8.304769723036696 13.929886073940963 -12.504967461821911
358 8 8 8.505479727601449 12.957069017721697 -11.72254614887816
359 8 8 9.050106676919507 11.588207643673082 -10.930012680753679
360 8 8 10.441950645145596 11.11879863820106 -11.792406418774258
361 8 8 10.883518015159721 9.157928266139521 -11.781254320960848
362 8 8 11.918686711765094 8.995323197110945 -11.901211958381955
363 8 8 11.21160912108744 8.763821761499733 -12.981285132095877
364 8 8 11.756146051328146 7.119931866053757 -12.97322851744937
365 8 8 11.037146703242227 6.074830101583545 -12.679829671608054
366 8 8 10.063586968197509 4.8185482317916275 -12.9323200975917
367 8 8 8.694383350252151 3.479889322641351 -13.532629738555968
368 8 8 8.194781713966924 3.2006442357369354 -14.48119545899383
369 8 8 7.500336196320426 4.743520737880916 -14.251034084178968
370 8 8 8.435378447807203 5.11020144800536 -15.603923303467232
371 8 8 9.085580057904359 5.580700298538737 -17.145056178217896
372 8 8 10.435752662954606 4.87378157830344 -16.899586363226025
373 8 8 11.531531985610732 5.014806228359004 -16.37498098322024
374 8 8 12.27021439057221 3.5441904401111595 -16.55121546164711
375 8 8 12.584042136715942 2.059561481801654 -17.330226937481253
376 8 8 12.291876065252774 3.4987718827064347 -18.347827125772444
377 8 8 11.93691733193758 4.2496248915586134 -19.86384673463287
378 8 8 12.322633688015191 2.8864382764169565 -19.633629680730184
379 8 8 12.570737364402802 2.063212818332725 -18.949843842186606
380 8 7 14.026019261986601 1.5064849280678312 -18.682867026363535
381 8 7 12.963049256582204 0.5569726847645764 -17.77021203943632
382 8 7 12.73423891594881 -0.40963267127166353 -18.732828465247007
383 8 7 13.727347762400543 -0.38348089732572854 -19.53734510292959
384 8 7 14.268919161613258 -1.397128973095635 -20.080550718220636
385 8 7 14.321626756107376 -1.2217571019132512 -21.405939716890963
386 8 7 14.295519897050474 -0.5148158530230923 -23.455918265804183
387 8 7 14.971934873801743 0.6323609470919801 -22.25418348289533
388 8 7 15.516103647393583 -0.4811903349468136 -20.782176198174813
389 8 7 16.435663852533555 -1.5036366705630297 -21.624213739555124
390 8 7 17.206504150195844 -0.592741510321707 -21.401181222112182
391 8 7 16.897978129173133 1.167101586631062 -20.75764339029589
392 8 7 16.41657397735707 1.0412246546375388 -19.509204783377267
393 9 8 -4.106920465821712 -3.693351218919178 -16.12289925939021
394 9 8 -5.1869785953253125 -5.304348485802029 -14.230049533079137
395 9 8 -6.68707693052317 -4.1780351476520305 -14.065237714792932
396 9 8 -5.6746130545953015 -4.070812995524673 -14.922728486190897
397 9 8 -6.252593803839024 -2.6818129252547185 -14.104214784114058
398 9 8 -8.209739364591696 -2.8673798643275448 -13.960673365522805
399 9 8 -8.277407232089972 -2.503828663993141 -12.620126495297571
400 9 8 -7.217224799644965 -2.0749217026726945 -13.169132120473291
401 9 8 -6.614475849492171 -1.6122992358798187 -12.441865399508517
402 9 8 -6.537708476253162 -0.7293036554554743 -13.095916369060236
403 9 8 -5.391658028691389 -0.7907568660004173 -13.286409668025605
404 9 8 -5.986249173188848 0.32172011506772785 -12.01120780268683
405 9 8 -5.447987028285623 1.1410925433075967 -11.117052073962308
406 9 8 -6.707540412712221 0.875521487102059 -11.2266082539843
407 9 8 -7.109988470933833 2.1222038915718424 -10.539666104620494
408 9 8 -6.655493776139674 2.1028238203632976 -9.14057774640361
1010 35 4 -5.468457918078698 1.3167578041988839 -9.455535372707843
1022 35 10 -5.816183417163432 0.7595284640079761 -8.102885375435697
1016 35 8 -4.682123306676405 1.4033042846214996 -7.975108650469392
1029 35 10 -5.008967397885305 -0.2579450658284881 -7.3376433793304985
413 30 8 -3.735841600985978 -0.6276726657328127 -8.671917740855738
414 30 8 -5.1635725259370915 -1.3187569787926936 -8.306439751601824
415 30 8 -6.416495618072795 -0.9337387943902989 -7.7999301428603705
416 30 8 -6.982509989823048 -1.042865847638062 -6.341268834149948
1021 35 8 -6.620671321989612 1.1345877575199732 -6.195896882675006
418 32 8 -7.479290857884138 0.3775604099599088 -6.615422280523454
419 32 8 -8.517062536561825 0.3203794698916819 -6.417906156173948
420 32 8 -9.7108618127095 -1.4071863980639583 -6.197693971212754
421 32 8 -10.588572762701347 -1.2479021141416458 -5.6989147731182905
422 32 8 -12.09936988804347 -1.8498565366763529 -5.574330788505197
423 32 8 -10.788300158538533 -2.9174702932283147 -5.441752296083388
424 32 8 -11.136883357670282 -3.9842038578147116 -6.68353299919045
425 32 8 -11.815013622944054 -4.555826319631313 -7.8805936087140065
426 32 8 -11.157147234118117 -5.404843107612647 -7.519059660962581
427 32 8 -12.05541502034603 -6.472994093976283 -7.305040978387846
428 32 8 -12.62256278129099 -4.974228477165726 -7.386067479342007
429 32 7 -12.443474553260327 -5.667768177882761 -8.877042751266966
430 32 7 -12.990214361907334 -4.239537106403424 -8.781820970416144
431 32 7 -13.919881626678528 -5.061820787103157 -7.396817819389537
432 32 7 -14.27473317804217 -4.764342280527118 -5.6449268486967705
433 32 7 -14.473551240305985 -6.195470744205617 -5.657733272223472
434 32 7 -14.41939699056268 -7.21692094981398 -5.949242535532681
435 32 7 -13.700837129644736 -8.589461061511203 -6.467079166732168
436 32 7 -14.714449749831104 -6.892128730373736 -7.743852632199992
437 32 7 -14.827470187125774 -8.270532131565982 -7.937750545019456
438 32 7 -15.840335044402828 -7.805608754344093 -8.249508352574194
439 32 7 -16.822352456903896 -8.391118172601688 -7.022169049377564
440 32 7 -16.41942454176586 -8.62904616870222 -6.021183839334021
441 32 7 -16.027542342674245 -7.03024770115695 -6.195901130831535
442 10 8 -0.10749729121977122 15.597969581691661 -1.0356264683824747
443 10 8 -0.6534793505142753 16.534897086423765 -0.7825386690446122
444 10 8 0.5679979390035983 16.675815409192534 -1.177988324673409
445 10 8 -1.5070786464310044 16.86474744312784 -0.17968577354586196
446 10 8 -1.9175892298227157 14.742984028181622 -0.7296582169394124
447 10 8 -2.45856502022495 14.487432006088723 -1.878563513005927
448 10 8 -3.8734774796496185 15.136221095339378 -0.866967915767634
449 10 8 -3.5705818742861726 13.766645260872943 -0.46518536908590835
450 10 8 -2.782616391814146 12.476861269862855 -1.2048702720425055
451 10 8 -2.153327502224633 12.786310994389735 -2.0208692845466265
452 10 8 -2.250982850956063 11.709907001202248 -3.5898464550515587
453 10 8 -3.2734992997871286 10.598797777715912 -2.73343948197367
454 10 8 -3.618711181348291 10.442812233584144 -1.6610491687067013
455 10 8 -2.604471925983502 10.058391115929295 -0.6070262174957494
1015 35 10 -1.738929125074551 8.996708092190254 -1.1111293776234026
457 10 8 -2.2538341184315787 9.417709284304127 -2.129015678031382