# Generated from readdy-to-lammps

1005 atoms
648 bonds

10 atom types
1 bond types

-30.0 30.0 xlo xhi
-30.0 30.0 ylo yhi
-30.0 30.0 zlo zhi

Masses

1 1.0
2 1.0
3 1.0
4 1.0
5 1.0
6 1.0
7 1.0
8 1.0
9 1.0
10 1.0

Atoms

1 1 8 -14.501982251306305 -8.225629563873303 -11.36286990139744
2 1 8 -14.088825711625171 -9.770930401633063 -11.533363085541945
3 1 8 -13.835447481587565 -10.69009997735612 -12.409685402728265
4 1 8 -13.492280049914854 -9.340230883123443 -14.03106705530831
5 1 8 -12.491415591523277 -8.696907250051876 -13.893377616047003
6 1 8 -11.732105741725972 -7.950805304696615 -14.423362379406559
7 1 8 -11.864092348737223 -7.191841724043774 -13.512539724002917
8 1 8 -13.014766360227267 -6.067053943325874 -12.86842876770186
9 1 8 -11.721561432937769 -5.956296560416965 -12.405686000784495
10 1 8 -11.21334438922436 -6.263687077880778 -13.347689987423692
11 1 8 -10.18752618177334 -4.7451382784329255 -14.246909219491242
12 1 8 -9.612818306809784 -4.841840746388145 -12.583530335853942
13 1 8 -9.035277905110602 -5.633435176297932 -13.415881368136287
14 1 8 -8.185390493707395 -4.764792813511169 -13.267028557792939
15 1 8 -7.642709809903393 -6.678998955462624 -12.085418096273042
16 1 8 -7.21152649903427 -6.886679293139802 -10.990689688374108
17 1 8 -6.573780552407398 -7.981178870377005 -10.270280167454686
18 1 8 -6.862884564459707 -7.815523809591042 -9.165731533300155
19 1 8 -6.978024104090893 -9.068696603468666 -10.093346766803085
20 1 8 -7.904776686016557 -9.18515165992138 -8.993321135509618
21 1 8 -7.6165460016320266 -8.219447987829863 -8.532624320566542
22 1 8 -8.884825914905464 -8.273739498583298 -7.057524555916236
23 1 8 -7.141228485559881 -8.367946139255583 -6.322744514750759
24 1 8 -7.378236660591778 -9.85021120234789 -6.938037697810881
25 1 8 -7.178230382095348 -9.979882740501264 -8.208219176451037
26 1 8 -6.067501844364424 -9.925892486640079 -7.599584954837156
27 1 8 -4.460646967744136 -9.395382228380894 -7.292215447421239
28 1 8 -4.133012588233835 -7.856830264017889 -8.379148264021199
29 1 8 -5.284732609500836 -7.37936870725844 -8.931850724574202
30 1 8 -4.038418011071364 -8.132757924018739 -10.039279769244828
31 1 8 -4.498229080691239 -8.952849964086155 -10.758548490188089
32 1 8 -3.2931460759432114 -9.446627079295096 -10.952304744844966
33 1 8 -3.102425194187686 -8.339707180942726 -11.38926272460443
34 1 8 -2.0173212608968347 -7.536494718757847 -10.73667811427209
35 1 8 -1.7602813980776355 -8.565407326946728 -10.990418100153498
36 1 8 -1.4141641233101268 -9.035046203387084 -12.477562334874223
37 1 7 -0.02610548904099526 -7.925951436539466 -12.557742543800524
38 1 7 -0.40598675930758354 -8.672308136006984 -11.636386501935966
39 1 7 -1.6987876288943327 -7.5721118363935025 -12.486617005868325
40 1 7 -3.4666423947779936 -7.1231469283281035 -12.220405502958608
41 1 7 -3.966411806283876 -8.35445314550965 -12.027686815966712
42 1 7 -4.705747930969897 -7.735712705552438 -12.436390360178855
43 1 7 -4.662204673984375 -7.628571854371434 -13.54887666970193
44 1 7 -5.040118126337956 -5.642713900750347 -13.087881463826466
45 1 7 -3.601550299051388 -4.449603383327628 -12.917180008091854
46 1 7 -3.0905982965820415 -4.470942029129312 -12.164290032073604
47 1 7 -2.8679435504526323 -3.03259315031859 -13.173021326327786
48 1 7 -1.9986417206695208 -3.7909719205874977 -12.387197813477115
49 1 7 -0.6775840539332418 -3.736698126307835 -12.233519911735003
1050 59 4 -0.9804468929227808 -2.743412377773486 0.10881036880496676
51 59 5 0.260326676508386 -2.037813713744354 -6.062091325784818
1046 59 5 2.7558839633756738 -5.193864312657652 -1.9032266103734798
53 59 5 -1.124411453660065 -2.7934204411311554 -1.9050389034352913
1042 59 5 2.3274899160765425 -5.6646944903903975 0.6357632127374322
55 51 8 5.21973725937552 -6.8272908730459605 0.09701636211099966
56 51 8 3.299611326423425 -6.791062691037418 0.38712241734447156
57 51 8 1.8320500669720712 -6.873197750472718 0.5476298961080209
58 51 8 2.1941934498134352 -6.582540635156223 1.704645418771499
59 51 8 1.1933725274470703 -6.210152226463718 2.140968255564704
60 51 8 0.9720894558095434 -5.273791012080202 3.117895971845803
61 51 8 0.6760380218085159 -5.0069784380462545 4.260257775631164
62 51 8 1.2831485837695267 -5.661400698418554 4.625203543561594
1007 59 4 -2.1963970102480017 -8.412975127368789 7.504433426388247
64 26 8 0.23146722386956262 -5.182478087596922 1.320922710846176
65 26 8 -0.9158100253983499 -5.021716628082788 1.4141034783324244
66 26 8 -1.7226088626715121 -3.87258278336868 1.794698414214567
67 26 8 -2.412798957584835 -4.7252835551921635 2.4652147854636346
68 26 8 -1.4615510493723403 -4.875746304875743 3.827802906802041
69 26 8 -1.260458800359088 -4.273648557603143 4.934460330673452
70 26 8 -0.300075830880765 -5.584359300428476 5.40506309666683
1036 59 4 -0.5018184867077972 -3.327390126662436 3.1291680014023786
72 59 5 0.17718789240644836 -1.4131173006853568 2.8674978714364627
1009 59 4 -2.478554320423372 -0.6119982912306282 7.560765570006656
74 53 8 -2.9359334157256276 1.678853026447503 0.9448426756118512
75 53 8 -2.1836961167869506 0.4594296113327379 0.3979063405923661
76 53 8 -2.7317517939421045 -0.8583336521891984 0.5169645336103607
77 53 8 -3.653754224542069 -0.37311135174947385 1.56360825117169
1074 59 10 -4.501077055622261 -1.4075625612339868 2.1682453328113453
1037 59 4 -4.616044364792392 1.3646454704182251 6.277903219100768
1017 59 5 -5.64464980764966 0.5552289258031073 3.609783269865462
81 56 8 -4.880527576606875 3.53456104970469 4.265613682264638
82 56 8 -3.479270654930582 3.7825533628231116 2.426451760370821
83 56 8 -1.7220265246356286 3.3118761659147857 2.1518414973489675
84 56 8 -0.44647147551553973 2.354480457915241 1.997129721819471
85 56 8 0.7101628268534527 2.4693464754611605 2.204254806356662
86 56 7 0.5968442071142931 0.9848629272622254 3.066828121455698
87 56 7 2.229107250970641 0.41324771457018733 2.4544326723231795
88 56 7 1.51438612084455 -0.7073409140462865 2.9472213208323534
89 56 7 1.2095860789915946 0.41901906538003597 1.94533056113848
90 56 7 2.4897219671784403 -0.7201184404477391 1.366809263944521
91 56 7 0.5293107403560856 -0.7899933481614918 0.44301705357789267
92 56 7 0.8060902249254209 -1.0654976556445284 1.4464580526973496
1044 59 4 1.2387459142260635 -0.7652354705015099 -1.304051422251652
94 55 7 0.6660195671223339 0.7445161857099843 -0.8697297097255996
95 55 7 -0.9311221690057128 0.18085167619254316 -1.5541898465567172
96 55 7 -1.9020973648451278 -0.656846763501955 -1.5810378278216253
97 55 7 -1.5530523039822877 -1.5542593395115112 -0.6335469053974223
98 55 7 -2.2307901506299204 -2.9321934304314867 -0.42494611374105323
99 3 8 1.6573045847126182 -7.611745005021729 2.466326724968859
100 3 8 1.9146051054751168 -7.93199212456909 1.2600893484065814
101 3 8 1.030513243224463 -9.170558406155164 1.80140446112614
102 3 8 -0.5884088592901021 -8.377088656606578 1.9536276323701764
103 3 8 -1.0066988999539739 -7.675760169827194 0.8318854865642878
104 3 8 -2.169205046341709 -7.12416425885441 0.7881644161189164
105 3 8 -2.39438713262518 -8.657176738391575 -0.002619080251419566
106 3 8 -2.264866721419806 -7.395534129077135 -0.9870533176474405
107 3 8 -3.176543564103509 -7.595580163146606 -0.2656095180237167
108 3 8 -4.084074322299753 -8.187440743802224 -1.0908620195156784
109 3 8 -4.333417847842566 -8.607472441651092 -2.1225635117790396
110 3 8 -5.8233067110640535 -8.584752225778573 -1.9504243956942235
111 3 8 -5.935714089316925 -7.559676765946637 -0.9370369935849986
112 3 8 -5.439517809947134 -9.182092571232722 -0.9698567607624736
113 3 8 -6.109194829655725 -10.163347941060728 0.055284033558790226
1024 59 5 -4.0072072530480645 -11.30799072017122 -0.910388710021091
115 41 8 -5.126930950580968 -10.523095394241857 2.9206571404725628
116 41 8 -6.992198376115643 -10.530075236769795 2.1477539522717555
117 41 8 -5.858818080411599 -9.617974126537108 2.298319785199413
118 41 8 -5.3323203476514065 -10.131016901718626 1.236524369572266
119 41 8 -4.260717730901925 -8.822970259625349 1.6901350351118116
120 41 8 -6.12820631342245 -8.409136008473926 2.1668324157243113
121 41 8 -5.281756044772051 -8.000387480785788 3.9465136804674614
122 41 8 -5.442934864537096 -8.139477140556624 2.8859010182579032
123 41 8 -4.204093481262641 -8.233116102481834 3.8270987940838963
124 41 8 -2.8836268194383505 -9.151649432752295 3.997871683872117
125 41 8 -3.1475365094530847 -8.235131576321843 3.5367860183411457
126 41 8 -2.6390969520784044 -9.120927263921343 2.8521755485777343
127 41 8 -3.759649489258061 -9.75839876757593 2.7423705544757953
128 41 8 -3.4419831241149703 -10.741442060024815 2.8512271378225917
129 41 8 -5.0174902019756376 -12.499768241848724 3.1305552205324436
130 41 8 -5.711512599448869 -13.517559514365418 2.3832466025291725
131 41 8 -7.510673162508524 -13.085847485860812 1.4596129812901988
132 41 8 -7.856774288785 -12.127665508084862 3.054695750590159
133 41 8 -8.649997156428668 -12.575410829999726 2.077881852961836
134 41 8 -9.141027722426749 -11.955903995405327 1.4003979263243869
1025 59 5 -7.459648589836231 -16.718503286560413 -5.740876469012938
136 38 7 -6.52132891091406 -15.159407052983397 -0.9482015685377055
137 38 7 -5.746778171523974 -16.674291809106716 -0.2653622382819646
138 38 7 -5.048207844843996 -15.476280826458552 0.14905270730021233
139 38 7 -4.45737668056747 -16.681845562951448 0.09730865746794731
140 38 7 -2.8058523083712883 -16.94562704091181 0.5433937810610537
141 38 7 -2.1448590897919657 -15.13616824504751 0.12471971913971318
142 38 7 -1.9888187535126352 -15.158972633274983 1.50687013612673
143 38 7 -2.5398524554386417 -14.432321569353524 3.1333104658421047
144 38 7 -2.8039066855213988 -14.521809304474345 1.4934212097402608
145 38 7 -4.265441219057312 -14.143757424181148 1.4819523907041663
146 38 7 -5.331825619785091 -12.887319723479564 1.4385160964099648
147 38 7 -6.154153601417271 -12.057747188702296 0.8812864428915146
148 4 8 -1.7152700792850037 12.44302537503238 17.720181711212675
149 4 8 -0.14046898976113842 11.117962754067602 18.17361474213019
150 4 8 -0.3456639475728279 11.093165647742362 19.21848507440474
151 4 8 -0.052938446637324665 9.6149587093082 20.08508673770579
152 4 8 1.137998380589423 9.59595615417067 19.860138708012947
153 4 8 -0.6233796530240412 8.922955146605338 19.211970715144083
154 4 8 -1.7499458053511112 8.069488452591736 19.036730548000772
155 4 8 -1.94302436689427 9.538130159836596 18.386408273161074
156 4 8 -3.3648026723146662 9.499640517071292 18.51733515828707
157 4 8 -3.6004436702569285 7.393513279684736 18.332202964457174
158 4 8 -2.1289439423506744 7.862320500140488 17.96992990388843
159 4 8 -2.5887052063654905 7.524247491438249 19.086123895406974
160 4 8 -2.6970314464575953 5.993540782430176 19.931286380318145
161 4 8 -1.506557102765016 6.016043634681518 19.894274047790134
162 4 8 -1.6957844979742187 4.865780983156344 19.813979788228124
163 4 8 -3.563775430270916 5.02645906821027 19.828314664759457
164 4 8 -5.147244598743473 4.989991386820193 19.538988296161687
165 4 8 -3.953451815625358 5.559757187102162 20.9587609713173
1031 59 10 -3.6682619116327375 6.942232557338247 21.04574767972317
167 4 8 -3.5294392614326915 7.542218898439402 22.58467378171014
1043 59 10 -4.769784559395478 7.966921497964872 23.19978284433474
169 4 8 -5.146500332924559 6.787966490777371 24.033078479905512
170 4 8 -4.606101690903002 5.296752977650032 23.19809525837916
171 4 8 -5.489674365062488 3.8413258103498737 23.13939171303755
172 4 8 -5.745205465370102 3.1534502907099657 24.263856704550587
173 4 8 -4.273538442235429 2.4842927419013856 24.94608209091544
174 4 8 -4.65863348768038 1.6768144646352252 25.4105539016952
175 4 8 -3.1382769843595897 0.4751323885359092 25.52142538579878
176 4 8 -3.0001228243675513 -0.7551505837178062 25.335276142440378
177 4 8 -4.0400329113650635 -0.20778963086757488 25.26223020774327
178 4 8 -5.054435164402688 -1.0457702750874291 26.019035662786692
179 4 8 -4.407169029026634 -0.6973367727660649 27.231754159232683
180 4 8 -2.6516382230502398 -0.6658556036154605 27.643735718145667
181 4 8 -1.5656888514655918 -1.5586153953657131 27.945674447398208
182 4 8 -2.052596944232355 -2.5420287124343015 29.291941416063665
183 4 8 -1.184169834189344 -1.7486944081249263 29.548419735950784
184 4 7 0.9743588070377726 -1.3145231676785771 28.96358951295326
1028 59 9 1.3577087529908727 -0.15138955304650922 27.79840894769286
1023 59 9 2.1120674439104405 0.6883679405627323 26.940204139282063
187 4 7 1.1668148872512412 -1.1802521860573922 26.31025877510671
188 4 7 1.029278655870375 -1.4837292776469895 24.73762476379736
189 4 7 -0.10662291313511603 -1.064883099792717 23.935674001179887
190 4 7 -1.5992253004611106 -1.9960124397467733 24.816157459982385
191 4 7 -2.830279172882894 -2.8318883971283935 24.925167130659563
192 4 7 -2.5889255886535496 -4.533135365669206 24.713545944015312
193 4 7 -3.415275997416215 -5.95844577342652 24.36660791637129
194 4 7 -3.411722263363255 -6.795020215673972 23.35527893956341
195 4 7 -2.4171419609603317 -8.068170178010911 22.850002720114368
196 4 7 -1.5487619600702076 -7.1235473087449295 22.602093718224044
197 5 8 3.23943028693202 -3.5797279945213183 12.238394087699277
198 5 8 2.6124231499043553 -2.7373457149502176 11.15428479071388
199 5 8 1.7149269386826447 -3.8991339938462897 11.743262044456637
200 5 8 1.9834143354849185 -4.499938948548476 13.58828606168097
201 5 8 2.66542528583485 -3.0800676619471905 14.139621768823087
202 5 8 1.6133303754862356 -3.69731091528719 14.479415987456733
203 5 8 0.7254045020340654 -3.231409409403894 15.876613876180622
204 5 8 1.8696274673609548 -2.9439351174283566 16.52669991137942
205 5 8 2.103375702792378 -3.3647098731557783 17.711057086116234
206 5 8 3.5289818612823987 -3.1100619513251906 18.186649214287257
207 5 8 4.8155009767639 -2.9798028675334307 17.680483749197606
1056 59 10 4.491178518761454 -4.427393929464137 17.313068588128623
209 5 8 4.1076095302482525 -4.496742393925133 16.050029882514174
210 5 8 4.348361244152102 -3.8004147667349257 15.298785603595078
211 5 8 4.704897132739091 -2.2760359559275076 14.597316951565462
212 5 8 5.084120364516028 -3.296403370594645 12.989496603100678
213 5 8 6.121866697891335 -2.124449493854142 13.446342107109727
214 5 8 7.503150449041704 -2.3906224028833125 13.236993946724494
215 5 8 7.513341797341636 -1.315109522619479 12.81351917971553
1019 59 4 5.479723301010772 0.8152134591554739 11.226128421453918
217 28 8 6.2717171581287205 1.4579744934040213 9.797263859431082
218 28 8 6.747166092574765 0.6559198163034076 9.262369065718705
219 28 8 7.670988068822543 -0.5796393958312891 9.416994856942194
220 28 8 9.280932647410326 -1.4272505395957928 9.304855231672704
221 28 8 9.12319680447911 -0.7897128554125301 10.204742741346992
222 28 8 8.559189854132097 -0.21545893378815573 8.415232350289035
223 28 8 7.8977234668438685 -1.3225658999678898 7.228923362830379
224 28 8 8.257837287884122 0.7306286637584916 6.728646467313448
225 28 8 9.177590943477425 1.0717036990600806 6.474825802155617
226 28 8 7.173458228187355 0.6265277304733519 6.263436250782931
227 28 8 7.2503411766963834 0.4417112086649548 5.16641505133547
228 28 8 6.663763162898936 1.3364053064272912 3.880513190966467
229 28 8 7.058046469958586 1.5854360542513593 5.399998234228157
1054 59 10 8.104529473567865 1.2456631064234787 4.18185436984911
231 28 8 9.635610509172295 0.48486496944893676 4.276298049035577
232 28 8 11.065821981436146 -0.9981259382528149 4.3942598169905915
233 28 7 10.517661318569926 -0.8726944661710594 5.4903516001515
234 28 7 9.25905995570122 -1.281998632894899 4.799149176780947
235 28 7 9.914503447591331 -3.1335801326025203 3.9373736057660764
236 28 7 9.588187434275497 -3.6207455799129407 2.209143046253523
237 28 7 8.479388544062584 -2.625540437656897 1.6670491435097967
238 28 7 8.971248219051057 -4.2949355507976446 1.3458802482807142
239 28 7 7.207889979338551 -3.116646093429456 1.9060796411414294
240 28 7 6.3494392753123545 -2.352427953626197 2.167848576413852
241 28 7 6.7903174554439865 -3.126961168399742 2.900017948324071
242 28 7 7.594188173414119 -1.7332489998404887 2.319147348116954
243 28 7 8.898278292700446 -1.4432433669121265 2.2215171763549963
244 28 7 8.165722028269013 -0.8674706079426504 3.219493648704931
245 28 7 9.329401600617642 -1.6119720745378372 3.4466804663166526
246 59 5 1.1167422312583735 3.830970989990156 5.756542279859295
1052 59 5 -1.0836140967735552 1.9812512319406606 6.088841981768248
248 29 8 -4.127073045514697 1.7003216522086004 3.457912171177264
249 29 8 -4.33873320391412 1.7822292613247537 4.921213728788788
250 29 8 -3.3446438799959677 2.817819847305434 4.856485151418342
251 29 8 -1.7974144165257375 3.9218100606570143 4.501988407885421
252 29 8 -1.2555676840796228 2.590345184194594 4.73944575949129
253 29 8 -1.0060878176491403 3.3976900215833234 6.493621780932527
254 29 8 -2.3576034850529606 2.877046213492044 6.118166201384304
1071 59 10 -3.834078910091111 3.726244295893491 6.44037690271093
256 29 8 -3.7841627935488087 4.874702866704373 6.836416356112737
257 29 8 -2.6689679315720944 4.802736690203807 6.723577065866865
258 29 8 -2.939660687836041 4.737725652755224 7.735831903531638
259 29 8 -3.976570244751126 4.9725077809544915 8.36077665354816
260 29 8 -4.650190938560725 4.7786119723209275 9.370728037863735
261 29 8 -3.3405140293383235 5.049404110979325 9.933405389962669
262 29 8 -2.799084865251403 4.193080411748575 9.752069500538948
1069 59 10 -4.102982961187078 3.355135867441152 9.34641927698601
264 29 8 -3.591735972551727 2.868344044983827 10.552335442335892
265 29 8 -3.0384096958047313 4.118115458512901 11.534741713614563
266 29 8 -2.7482518606054427 3.322854690702193 10.501103018453604
267 29 8 -2.7936564353778692 2.3489794535607325 11.954644198804571
268 29 8 -1.3461062607788117 0.8243607419645445 12.384506173995769
1034 59 4 -8.542639420791668 -1.7633495667808978 9.989245247958591
270 43 8 -3.425774979004085 -0.6725318458942197 11.93810580250968
271 43 8 -3.975350595698783 -1.5399580359905571 12.558451938203612
272 43 8 -3.4161235412099984 -3.013704071899765 14.063161649445718
273 43 8 -4.457414827825738 -2.3201486409223957 14.027375348499946
274 43 8 -4.469922166684834 -3.1804288186763556 12.86416169942205
275 43 8 -4.096999368437322 -4.345019491201648 11.981424349531013
276 43 8 -3.3220929877779204 -5.837022383473883 11.642811469709258
1047 59 5 -4.0268678013067465 -2.675195221509052 9.74895647760583
1012 59 4 -1.302573282804568 -2.6838616043476113 3.67510230867297
1026 59 4 -6.433538032157487 -2.3014374649042435 10.765716528022331
280 47 8 -7.08633909376756 -0.9319540153632457 8.297359913284764
281 47 8 -6.854497122440998 -1.9479451190554709 7.389832330590029
1067 59 9 -5.820683465677599 -2.6954793847631415 7.917593312426227
283 47 7 -5.397100258614852 -3.7892383376774097 7.196035310720131
284 47 7 -4.4798431801968945 -3.684625431901335 5.904761866147349
285 47 7 -5.669845645923044 -3.0514054353419153 5.683177816876288
286 47 7 -6.537531189272633 -3.5373869114808376 7.076044355871544
287 47 7 -7.895882486255771 -2.7430443149692136 7.35223170808476
288 47 7 -8.084184109043086 -4.594579660806907 6.217658103464021
289 47 7 -8.896580866974725 -4.350084198394152 4.907450070877626
290 47 7 -8.515464481525202 -6.0756127566896865 6.472000088982119
291 47 7 -9.829365798740394 -6.309463991757071 5.307440468862069
292 47 7 -10.289253962079066 -4.512182765403798 5.074547732736232
293 47 7 -10.18367999501586 -2.974080609973722 4.210219462356813
294 47 7 -9.705479026072275 -1.6971746891572357 4.509363902565314
295 6 8 3.7741926472205787 14.519005798863452 7.672882363267598
296 6 8 3.5270381645075215 13.790352878709749 6.776281002579718
297 6 8 1.7697466912700803 13.335980905329281 7.493683493293954
298 6 8 1.0147188303483072 13.45101437901605 8.188639945513582
299 6 8 0.10787850387370965 14.308222947701418 8.705030954291795
300 6 8 1.608246249206024 14.765796638304623 7.711601577231562
301 6 8 1.592460935606946 14.675047750549025 9.884901777616912
302 6 8 0.3831933512235139 13.403812282744411 10.18771110576721
303 6 8 0.24287742631556739 11.995980745017874 9.718602411521754
304 6 8 1.5459355308464457 12.455675287320917 10.874956352653745
305 6 8 1.4236354245153886 11.960484695129356 9.968241873090884
306 6 8 0.6628061069497178 10.226395863865559 9.7156564134384
307 6 8 1.6241037643512042 10.862742905439058 9.986332516684243
308 6 8 2.730265035895272 11.551790739521005 10.401685010799298
309 6 8 3.4713881010137593 10.585116261752344 10.578259222401023
310 6 8 3.672481453481647 11.538319787881749 9.660699881749933
311 6 8 3.3847135694394224 12.398954720987371 11.216285586405652
1011 59 5 5.764633189167854 8.547327832357299 7.695320192757866
313 42 8 3.2945156712590893 8.238815672405742 9.066326933119944
314 42 8 1.5728240349441929 7.772476319725671 9.04421317068154
315 42 8 2.003949560812122 5.700203920001918 10.266556928372102
316 42 8 2.8228535764651266 4.824742973114671 9.217919342723526
317 42 8 3.0050156039192615 3.6928096604294867 10.289831232736363
318 42 8 3.436015320989592 2.773882596206716 8.645655629394835
319 42 8 3.794432517066319 1.2945518738935402 7.352067926488442
320 42 8 3.5463227532371535 1.3485554433519895 5.568011215189449
321 42 8 2.699166692472924 0.7925376908578294 4.8012235169494115
322 42 8 1.8958708062323701 1.5324548449583644 5.337031812723066
323 42 8 1.6689346794728712 2.348929447309946 6.181091986086992
324 42 8 1.0434882901432285 2.591899691184567 7.194585497611435
325 42 8 0.19563314673759355 3.3501875771701664 6.881235396249088
326 42 8 -1.37301994053924 4.538251801004844 7.548925194796883
1064 59 8 -0.2746039918451135 4.386013431395219 6.888190141484144
328 2 8 -2.7362463713995075 2.6802745396580456 7.693734962469333
329 2 8 -1.1255892917221435 2.5342445265542386 8.250178683824174
330 2 8 -1.499303045681753 3.583499116628826 8.513919444074546
331 2 7 -0.3840388141995065 3.4219617498868926 8.994474365742622
332 2 7 0.7135720550726511 2.668822641886908 10.161154932295226
333 2 7 -0.5295439335799442 2.426339199350624 10.629301887469332
334 2 7 0.05087196685010201 1.999521979371388 12.31085579832685
335 2 7 -0.1906441772790665 3.1215490920449604 11.774558509289744
336 2 7 1.1963206146742806 3.079788829626119 12.678534513535958
337 2 7 1.4035592875753666 4.309201367097507 13.182014588776505
338 2 7 0.47064282941753344 4.240593521260998 13.44331488892796
339 2 7 1.2031514869790272 5.558710335117492 14.291428396580793
340 2 7 -0.20263345048717124 5.3906992958497275 15.242381041056335
341 2 7 1.1480576994072742 5.048440596036383 16.564532420667298
342 2 7 0.10878995660516477 6.051964251766989 18.220082205293327
343 2 7 -0.09370459429586786 5.99002848370403 20.032381599533146
344 7 8 7.581245584222808 17.579019568101266 -7.642916853141619
345 7 8 8.59283934564955 18.17612777676772 -8.928117386956
346 7 8 6.934642838061366 17.2768115716133 -9.065817894078236
347 7 8 7.8273084551385725 16.35831464287839 -8.591374663685107
348 7 8 8.871104921507056 16.06439824118499 -7.098862054762683
349 7 8 7.895528139769665 15.686972310475888 -6.985047123493439
350 7 8 8.092641766449638 14.86857154997141 -8.316733698189472
351 7 8 8.604070212059694 15.11951626775328 -9.580450914881736
352 7 8 7.179296686010662 15.82097419996507 -10.14673476788127
353 7 8 8.025217513225485 14.412846925947079 -10.799239034480072
354 7 8 7.596525274448232 14.969486225534936 -12.296505196004617
355 7 8 8.169022938522389 13.336481796554478 -12.581818522083518
356 7 8 8.331991521963698 11.267563632844075 -12.789329187161131
357 7 8 8.35965142375665 9.901381362395526 -12.232065732059846
358 7 8 8.095847470930577 9.662640366358586 -10.957330658513888
359 7 8 8.824753804566033 10.648845946341247 -11.333808929394392
1057 59 10 8.699691966301119 9.091603063983491 -11.492787116845006
1048 59 10 10.660012688910848 8.266539399679695 -11.57257218368576
1066 59 10 12.071861684891356 7.676457184041497 -11.74692583211981
1051 59 10 11.733556819558219 6.343592096542262 -13.016399305329895
364 7 8 9.736243521910728 5.665175088251818 -11.921786769259004
1063 59 10 9.853369928394756 4.535585474003541 -10.789308736492051
366 7 8 8.88474016570806 4.203782676684876 -11.735085839366912
367 7 8 10.090270142321813 3.4246955464312534 -12.63019453861556
368 7 8 9.381423273709624 2.1169614799306986 -13.532094541873207
369 7 8 8.890761962763992 3.399455109391967 -13.513875083869628
370 7 8 7.998824675844055 4.395803184862011 -13.319997866145245
1038 59 5 9.30754794578844 7.788669963640123 -13.311125350164819
1035 59 5 14.998531187134136 5.5640847775739735 -17.117180550332847
373 39 8 13.480079182886115 5.349256386947148 -17.249470064416453
374 39 8 12.722143560874056 4.600238813279583 -17.030841134900687
375 39 8 12.231538144304682 4.144478083509248 -18.001507552015504
376 39 8 11.459715632794753 4.333728773599989 -19.176487725987787
377 39 8 11.058169349617891 3.299678086388739 -17.813104349110127
378 39 8 11.977399423385538 2.3222244198164295 -17.462326870409026
379 39 8 13.104641123992733 1.2369786657018846 -17.9139175606828
380 39 7 11.637583343757523 1.6869954183537341 -16.290386894717305
381 39 7 11.423145659364392 0.6470953379887437 -17.643876911909935
382 39 7 11.244757834051986 -0.4183332218431431 -18.408024240380858
383 39 7 12.908494269150392 -0.5125649661692332 -18.965841760702933
384 39 7 13.34313661834825 -1.2954115246610272 -20.725208575656314
385 39 7 13.170370734288875 -0.27219777165294734 -20.555148563598657
386 39 7 15.002266454717763 -0.8117864045043363 -20.73146104574145
387 39 7 15.762263510656812 -1.7963749585973972 -22.44313770526324
388 39 7 16.258988638549177 -2.631393613183538 -22.31572061111382
389 39 7 16.81591813837205 -1.1589431947733835 -23.20551694049249
390 39 7 16.82481866345271 -0.2171396124251501 -22.856883044506255
391 39 7 17.355723229718688 0.7824807174568422 -22.569488685635573
392 39 7 18.246733601909536 0.44500043815044144 -21.251224005818173
393 8 8 -4.955115891910537 -2.6241030720008602 -16.385001815865962
394 8 8 -5.935856049546303 -1.8789314537877293 -16.534846671841017
395 8 8 -6.533781976435228 -3.187455239905276 -15.214167565879814
396 8 8 -5.861815150729667 -3.199047606864855 -13.793351002697213
397 8 8 -6.885614756451246 -4.485881093648892 -12.453024516824316
398 8 8 -6.8849342792230095 -3.283521012717541 -13.230633590160593
399 8 8 -7.378433482958293 -2.297534887947532 -12.107031068392397
400 8 8 -7.58773252891356 -1.2827145716309623 -11.893987117496662
401 8 8 -6.025652342043874 -1.1505304384701058 -12.693498230128686
402 8 8 -6.325250947986422 -1.5773849824412185 -11.698255207758995
403 8 8 -4.7455367575583365 -0.0870049452713337 -11.998372199949616
404 8 8 -4.282486915012076 1.6809129691273148 -11.98922189378964
405 8 8 -5.118344701736101 0.4870503152966032 -10.813030696392463
406 8 8 -6.137701810502759 -0.07594481084233792 -10.144145609856151
407 8 8 -7.32548562963542 -0.22490435796921918 -10.083416774478424
408 8 8 -8.228969137114793 -1.6688457710720583 -9.574576130151032
1010 59 4 -2.0562239049680837 -0.5877134624678574 -10.298556652179352
1022 59 4 -7.426698164759805 0.31102170378337707 -7.392108706741067
1016 59 4 -6.196857128472353 4.1985755839837555 -5.66529257743881
1029 59 4 -3.1843484900618564 -3.167294094499856 -5.922176996170697
413 49 8 -5.051507623376591 -2.219099139022588 -7.6769497732057514
414 49 8 -4.934236485791511 -1.2937036962326256 -8.562429870827302
415 49 8 -5.230571575350145 -0.4453596789027229 -7.398699053955039
416 49 8 -6.523296022698327 -1.850093862087976 -7.316749691554523
1021 59 5 -8.575609160104003 3.5335760324116454 -8.285803794468222
418 30 8 -7.490192896735911 -2.24109121063821 -5.900892984876542
419 30 8 -7.069368734761389 -2.693113494126163 -4.665095764076436
420 30 8 -8.947957066632242 -1.4941949050557677 -4.417806450198829
421 30 8 -9.568513728893146 -1.505392849848338 -5.230397094552124
422 30 8 -10.523395737977674 -2.085007567439685 -5.951503269115872
423 30 8 -10.095341139313538 -2.3283110240787894 -7.25797194161998
424 30 8 -10.669384290094 -1.3352175660610364 -7.643960578360804
425 30 8 -11.329248026498997 -2.9690668990959077 -6.715625132675452
426 30 8 -10.86115220141625 -3.611838639446273 -7.666044193387631
427 30 8 -11.476556290725712 -4.3960859083766195 -7.430932494328274
428 30 8 -11.677215218694405 -6.018173711706 -7.718434470713451
429 30 7 -12.193432971529049 -6.0396675047845605 -8.853535639249305
430 30 7 -13.719003271846862 -5.3174261859706995 -9.069754661686956
431 30 7 -13.229893768521398 -5.702916740379829 -7.497667980216816
432 30 7 -13.311500519485623 -6.836329405564166 -6.973210001527022
433 30 7 -12.884129366542153 -6.558123333845975 -6.041675720332443
434 30 7 -12.231805107593617 -8.23661996841321 -7.472787096140099
435 30 7 -13.548028312386771 -8.114141670822661 -7.7147851066858815
436 30 7 -14.726386369685224 -7.7437400876083915 -8.775527158055253
437 30 7 -16.36504111772039 -8.087096155526313 -8.309405672348083
438 30 7 -15.699374869332225 -8.286581385765864 -6.605168286883097
439 30 7 -16.309264066832537 -7.963975741991048 -4.797264139216759
440 30 7 -14.988939821541223 -7.977595301744423 -5.861170742543694
441 30 7 -13.931403522704244 -6.246471491402219 -5.099601144480798
442 9 8 -0.4013100623907073 16.141694594790426 0.442177826548566
443 9 8 -1.7450463733027626 16.456324162358207 1.2227062460585585
444 9 8 -2.512828067296751 16.19941897208711 1.847045335044064
445 9 8 -3.299791543681963 15.489827625651996 0.2669084030093394
446 9 8 -2.8277360323171155 14.505045465860853 0.13019745794702844
447 9 8 -4.1567366910514165 14.830911422433322 -0.892598817825392
448 9 8 -3.4352144806350857 14.004376836398036 -1.6166342955681547
449 9 8 -3.706130915661174 14.210930417958412 -3.515447318469168
450 9 8 -2.056407439976365 13.946431974979507 -3.6525486577878254
451 9 8 -2.433084331118802 12.994079407957454 -2.764014502187407
452 9 8 -1.9016500521057011 11.996589988338496 -2.154782030810274
453 9 8 -0.7194083353659831 10.818088247809014 -2.021993108117327
454 9 8 -2.0346736954871867 10.852326711865334 -1.6707390856294486