# Generated from readdy-to-lammps

1005 atoms
688 bonds

10 atom types
1 bond types

-30.0 30.0 xlo xhi
-30.0 30.0 ylo yhi
-30.0 30.0 zlo zhi

Masses

1 1.0
2 1.0
3 1.0
4 1.0
5 1.0
6 1.0
7 1.0
8 1.0
9 1.0
10 1.0

Atoms

1 1 8 -14.640411487767382 -8.3815321041296 -12.176554770466206
2 1 8 -15.026399191718294 -8.934242064229434 -13.016042692760871
3 1 8 -14.537181436799198 -7.992788653992233 -13.623168351055936
4 1 8 -12.542071951259958 -8.215586884931296 -14.667544274812464
5 1 8 -11.386091297601318 -9.447084431105345 -14.914973682560337
6 1 8 -11.548792256498665 -8.12119498729051 -14.311710469545512
7 1 8 -11.807593904728563 -6.650041082987941 -14.720833156445314
8 1 8 -11.285441649354393 -6.297954190283923 -13.390332332123895
9 1 8 -11.316371087695579 -5.2721798272831 -12.25555213739707
10 1 8 -11.964975428811265 -3.831671348278289 -11.91142372750232
11 1 8 -10.741393946892575 -4.4424431309878525 -11.1376632983295
12 1 8 -10.067451409557572 -3.5570673188531936 -10.591938404488952
13 1 8 -9.884219968622007 -5.179199047656028 -11.509619429729575
14 1 8 -8.261272062036696 -4.523421149556013 -12.396070559705034
15 1 8 -7.826856344896877 -4.4204479591768155 -11.481796715590487
16 1 8 -6.684386565109177 -5.013970627386984 -11.200782763545972
17 1 8 -6.307550536618483 -6.138812292256863 -11.458323747067555
18 1 8 -6.478893271369319 -6.954716260582368 -10.123946238405297
19 1 8 -7.581093420737618 -7.758715947150044 -10.962040179653542
20 1 8 -9.041183600889893 -6.874166642081793 -10.357730534195753
21 1 8 -8.91068914866798 -7.818815725711475 -8.87970443996856
22 1 8 -8.471699962907499 -9.11369822345776 -7.855293095727557
23 1 8 -7.886526346511032 -9.898115243656587 -8.515828902906117
24 1 8 -7.215912366799823 -10.875718989684378 -9.026570202153314
25 1 8 -6.435547086772453 -9.6247296916057 -8.479645577610048
26 1 8 -5.738296568868271 -7.643627126991381 -7.590246687874326
27 1 8 -5.123045152078859 -6.595034856059326 -6.794061618414019
28 1 8 -4.023080229042444 -7.252165607780987 -7.998302099637871
29 1 8 -2.7540615662537293 -7.1015727298600275 -8.894156897736746
30 1 8 -3.3353590409407254 -6.8109459589996355 -10.410224440887328
31 1 8 -4.263214302997085 -6.397178533694091 -11.267788212125993
32 1 8 -3.929614708219512 -5.162391762275091 -11.292056902953025
33 1 8 -3.1399014591367322 -6.2566811399562745 -9.622341934995264
34 1 8 -0.9626937197266089 -7.409655750844976 -9.79113060349739
35 1 8 -0.1881938716361195 -8.288267562516317 -9.768900871968366
36 1 8 -0.00875960812557033 -7.1228197564612215 -10.050466546121807
37 1 7 0.41763380583464876 -7.754292707279359 -11.69017957119446
38 1 7 -0.9333570104628395 -7.924363034840459 -10.698586738484554
39 1 7 -2.095210296921772 -6.7716443792997545 -11.044558707544212
40 1 7 -1.9093171895070593 -7.140827782644833 -10.165328277805168
41 1 7 -2.29607744109765 -8.241863916420913 -11.69402615062589
42 1 7 -4.463174188963109 -8.18417221057605 -12.365464495003307
43 1 7 -4.5796694165070315 -8.098678281444979 -13.613203270552688
44 1 7 -4.338670350317285 -6.661354424607035 -14.622416793558163
45 1 7 -3.70976889715408 -5.104200219853514 -15.146054643852008
46 1 7 -2.4787352479695186 -4.114550714892817 -13.705032615739569
47 1 7 -1.5572280090004216 -4.0390612405052915 -14.231324254765159
48 1 7 -1.6635671951156004 -2.2800921262755254 -13.874076897819517
49 1 7 -1.8984419875759238 -0.5441066443934495 -13.156801630039944
50 2 8 -0.9013456840246211 -2.2912010960798788 -2.720898882080189
51 2 8 -0.21581895570669776 -1.692709552593392 -3.319148681796328
52 2 8 0.7631416513828938 -2.571536028492264 -1.2827220708175504
53 2 8 1.4654726401741427 -2.2981750350071675 -0.36388140855334994
1042 56 8 0.5014415546455319 -3.7083021123779485 -1.2481745278620238
55 55 8 1.8241752341199922 -5.550217515632598 -0.31115978707689035
56 55 8 2.0179776002223604 -6.674503738635035 -0.2215101935617787
57 55 8 1.704396480475782 -6.450878558932237 1.505041090868689
58 55 8 1.6868140134935714 -5.268764203748314 2.5866775597487424
59 55 8 0.8980438492423117 -6.2146399765543 4.013726147604993
60 55 8 -0.7990740297151935 -5.311424276999391 3.1396310921379267
61 55 8 -1.1611343960726899 -4.4414802913750275 3.6992040585316337
62 55 8 -0.05091330107230295 -3.833844917026857 4.486408208126243
1007 56 4 -1.060537031078412 -4.38977110009427 5.765317989567449
64 27 8 0.04721906435325643 -5.334607484398745 0.8484349038263029
65 27 8 -1.1700025431848189 -4.576519571650732 1.5008503325220934
66 27 8 -1.630175389108449 -4.719339892717348 2.408364381402421
67 27 8 -2.3996271524789705 -3.866112798380863 3.0293683003105873
68 27 8 -2.187256934070655 -2.725664790036418 2.5870537621771663
69 27 8 -1.5143567666579154 -2.812033754666024 3.9529852928814746
70 27 8 -1.0947338446715864 -2.561589663880154 5.20886671964833
1036 56 10 -0.1423364342681468 -1.969570670145282 4.487121105547061
72 27 8 -1.1638004297708961 -1.0292822359966125 5.118482508185573
1009 56 10 -2.5730893818426677 -1.519830151567476 3.7877126736450006
74 27 8 -1.7169779691954123 -1.0444544532899924 2.2568237971667293
75 27 8 -2.9878500039798728 -1.2567432491440065 2.2955093646144613
76 27 8 -4.442641159169216 0.3950784097999477 2.146624342605329
77 27 8 -5.117682745936658 0.23408794764428456 3.1206378629347054
78 27 8 -4.647716469421187 -0.5860547376496859 3.614969396085681
1037 56 10 -5.075353371839869 0.9144092145337508 4.003470468295461
1017 56 10 -4.033870832674747 1.3840621843480303 3.701426627604652
81 27 8 -4.27017134324765 2.292230817024908 2.6374993553872907
82 27 8 -3.902694011715799 3.3045238813605486 1.9072353033098803
83 27 8 -2.8772374801741587 2.878865142503656 3.1441443754193084
84 27 8 -2.396890484453875 1.0234428600954442 3.217777865361217
85 27 8 -0.9479260978020779 0.3127725173567681 3.0837741532764484
86 27 7 0.16978394064239533 0.6511678592230725 3.590698383486268
87 27 7 0.8353441108379879 0.3029297410265253 4.126682612144543
88 27 7 1.0076271924518174 0.07893498785394275 2.8185629640709817
89 27 7 0.7945542407384241 -1.1341929184529196 1.5376025200213574
90 27 7 0.9641563064442371 -2.071763396384417 0.7265428485490988
91 27 7 0.982523154855288 -0.6795701737047084 -0.22350864665303824
92 27 7 0.45153906428949575 0.46856819331623245 0.8966324085861221
93 27 7 -0.49937627699856435 0.7711674446597597 0.5837633852101334
94 27 7 -1.5746932652277605 1.0395115115490283 0.0812452476120337
95 27 7 -1.9483126547382263 0.4451443506273193 -1.1333493725945896
96 27 7 -2.3054654159646226 -1.0734549322936142 -0.44276890820155945
97 27 7 -1.1211615746740973 -3.0027526753593157 -0.5951652253999871
98 27 7 -0.23368521641945483 -2.2903646290423763 -1.899748766462019
99 3 8 0.47849196129670707 -9.1316045145391 -0.6367313839360869
100 3 8 0.3374624203075413 -8.40977451861892 0.7106422474224346
101 3 8 -1.6663754416841179 -8.312343749329107 0.39480518631158473
102 3 8 -1.49761974727807 -7.80621436392063 1.87131599080672
103 3 8 -1.704703419535504 -6.316114615711305 2.1716892291851746
104 3 8 -1.4313192658885692 -6.869159561016214 0.5125137172017784
105 3 8 -2.7281437301641307 -7.764572437832212 -0.05826520453523778
106 3 8 -1.9475464604529933 -7.79855163735187 -1.1445033368112387
107 3 8 -3.2224554945273205 -7.9915276684305105 -1.21485846718262
108 3 8 -4.152569962448691 -8.001739029602534 -2.1599225900736525
109 3 8 -3.7893472066354703 -9.231560216885699 -0.5999032299383807
110 3 8 -4.449599876421597 -7.722825660759535 -0.8837716066776992
111 3 8 -5.49226003651113 -8.699291187604235 -0.4465500533031914
112 3 8 -5.784885248247532 -9.206508245308978 0.8423712966337822
113 3 8 -6.810857287965618 -9.305126767108643 0.5150648176519323
1024 56 8 -4.72149031790412 -11.670066793097604 -0.0363608192213793
115 44 8 -5.824598386399519 -11.999912597401782 1.5174781683310472
116 44 8 -5.256324300933678 -10.596612522384103 1.6487433801531133
117 44 8 -4.750914862943498 -9.218977089658862 2.1406868981982767
118 44 8 -4.2185043588251165 -8.730977659330481 0.44859139549788013
119 44 8 -5.3358351523971885 -8.057511710554559 1.6369929097897682
120 44 8 -5.1210921847048025 -8.865647909859879 3.123694797213519
121 44 8 -5.14853710669914 -7.685878348034616 3.572806764857372
122 44 8 -4.021545773825266 -7.191391332563949 3.9877380137196914
123 44 8 -4.3560646322723375 -8.31251991665241 4.263725245494577
124 44 8 -3.390876290000673 -8.769947500341692 4.878054370195081
125 44 8 -3.00100489415704 -7.6669008213206356 4.086464843315248
126 44 8 -2.174223968356012 -9.205460011043005 4.720537535048237
127 44 8 -2.27582523806306 -10.601667780319051 3.6687107478867977
128 44 8 -3.6951919257418746 -11.439902751821569 2.91749828732011
129 44 8 -3.4850372357121002 -11.503877925557939 4.230515795965987
130 44 8 -4.455108024264478 -12.670898622377054 2.8570033965077912
131 44 8 -6.017180913450591 -12.583089703870497 2.9719225488863183
132 44 8 -8.021660008821398 -12.82606248254301 3.6038805522079076
133 44 8 -8.12430126332024 -14.59697492586825 3.3218809920384915
134 44 8 -8.259457675245086 -12.975351926382519 2.4294219048258006
1025 56 5 -3.1905314486712513 -13.706231458973557 -1.7654632737613254
136 41 7 -7.082340888021754 -15.363914399983424 0.8282949144457515
137 41 7 -5.427872352699697 -15.945777292537137 0.44035523644621416
138 41 7 -6.235915892507297 -16.886634469691835 1.527878207244154
139 41 7 -5.083803376365057 -17.48798378704888 0.1461386793399136
140 41 7 -3.386804553568655 -16.416310925415615 0.7993582848632905
141 41 7 -3.6964247146184106 -15.4576949974736 -0.3345425234315692
142 41 7 -2.1112744962380967 -14.795502899735363 -0.17444987862701422
143 41 7 -1.780940850930513 -15.340951732628815 1.2311668440992023
144 41 7 -2.5161877259131766 -15.418068738062566 2.8915709945878003
145 41 7 -2.1535633297063232 -14.090388335909319 3.5580951832996552
146 41 7 -3.974432661038769 -13.720410055201079 3.265606693691014
147 41 7 -4.428056535715839 -12.387833188505821 4.053741820062564
148 4 8 -0.28177007488840505 11.81105061794537 16.634338149734017
149 4 8 0.05180092095565826 11.077258448862354 18.039033412677426
150 4 8 -0.6249239512331378 11.056655466817768 19.00681654288747
151 4 8 -1.302344991898596 10.055832931280648 18.172365315162164
152 4 8 -0.0047100571842458895 9.95154087101656 17.49075429340218
153 4 8 -0.4614654498630525 10.892574185359265 17.045414741928727
154 4 8 -1.9686587942881633 9.925713521116345 17.32312381401525
155 4 8 -2.6637695725576567 9.776495335113944 18.7371778724653
156 4 8 -3.6679104010190686 7.987158792064709 18.76215733811181
157 4 8 -3.204883367142887 7.814436843098085 17.485732065586426
158 4 8 -1.761030065096739 8.46406489739012 17.775251391023282
159 4 8 -1.1034502200411151 6.597092325590433 17.50884626077102
160 4 8 -1.191419600116681 6.02145318328917 19.510195135429807
161 4 8 -1.739725485788121 5.388124274127219 20.930439284541304
162 4 8 -3.2030713920193365 5.592230859745523 20.644792370423588
163 4 8 -3.880520272067961 4.722022225341975 22.68495699033349
164 4 8 -5.2654714223670736 5.1283081518819875 21.00265736263278
165 4 8 -5.137754218762373 6.285753911315194 20.228299667427123
1031 56 10 -5.109299756895833 7.485342746115103 22.123310556622098
167 4 8 -4.885909453998479 7.76160425372375 23.143653523815743
168 4 8 -3.811757546491381 7.699386658590125 23.9804884126515
169 4 8 -4.862650114205704 6.7608231130518845 23.389559692078635
170 4 8 -5.808219308767474 5.530268093880526 24.186947080149604
171 4 8 -5.409769042859557 4.143232643872277 24.246466154824432
172 4 8 -4.273215735463646 3.0086079778788135 24.1952936671865
173 4 8 -3.142153450602304 1.9728134228065812 24.93160556126802
174 4 8 -3.511481854782904 1.1234151129577457 23.811910230421073
175 4 8 -2.5263806085584664 1.396577365242514 23.66795254865006
176 4 8 -1.9221379500456641 0.6615810970411395 24.787324159094933
177 4 8 -1.9090787664014166 -0.08083251655868046 26.026237942417893
178 4 8 -3.0575311907181186 0.7597841006023055 27.309038120141306
179 4 8 -4.137019856758282 0.09691151905858804 28.048092877563114
180 4 8 -4.710523568500023 -0.7077034061864801 27.495123867049017
181 4 8 -3.6857974840835612 -1.3791668904875416 28.44124958223746
182 4 8 -3.007323740954176 -0.22767371772222786 29.19564668727324
183 4 8 -1.8147763857681287 0.7073679150640384 28.755790901928727
184 4 7 -0.13173682901120737 0.2747303342006427 28.98897960553742
1028 56 9 0.6985226222291094 -0.2994056626417708 27.222202014948124
1023 56 9 2.168914325283929 0.1325729675887062 27.372291784090343
187 4 7 0.9105543639072093 -1.5701396490908808 27.58051075753968
188 4 7 0.02540561261581412 -1.280572769266067 26.20567505404685
189 4 7 -1.431042873970876 -2.0956512101758538 25.42599510522508
190 4 7 -1.7696029328251819 -2.499704093043258 24.30867411084154
191 4 7 -3.6766825569908037 -3.3305444730363503 23.865821554495067
192 4 7 -2.324321784796696 -3.870747840844182 23.292659350497207
193 4 7 -1.405858202509788 -4.6164613850152305 23.22561229649455
194 4 7 -1.6970791542736359 -6.065920591258542 24.065922654291885
195 4 7 -1.4059264348795468 -7.317723579017351 23.07489496289415
196 4 7 -2.1341992234815055 -6.914614966358769 20.734028831935145
197 5 8 0.9873948410950836 -2.350011613734289 14.147990170888683
198 5 8 0.8353052160078278 -3.8758312691121932 13.280315468465478
199 5 8 0.9587045373705809 -4.931869448780537 12.658846970553839
200 5 8 0.4646091011639052 -4.74702191547392 13.880675982877603
201 5 8 1.315908473846672 -4.031384576964393 14.64957299298773
202 5 8 1.3556171275229367 -3.030712753513841 14.943020735254212
203 5 8 2.6055005601262486 -2.4302098582869265 15.832660999062345
204 5 8 2.3922145740367307 -2.5357637907869734 17.182883513729863
205 5 8 3.6345122696167835 -1.7320117037388016 16.995755159401853
206 5 8 5.0271380803105785 -2.0327615382252815 17.196204746711548
207 5 8 5.077444429668315 -2.6848787248899595 18.097051177749975
208 5 8 5.483536339928458 -2.9902444665039316 17.04342027788226
209 5 8 6.379364009526535 -2.6730775611451656 16.08957733051825
210 5 8 4.9113319489537774 -2.4631484782921955 15.503331891645601
211 5 8 5.408096359898505 -1.7925897956903825 14.349956290187368
212 5 8 4.942455705460124 -1.685401901616924 13.487787413959852
213 5 8 4.986686521381149 -1.4470902477036522 12.221735574546932
214 5 8 6.65330022868726 -0.38461316942654666 12.850250779332997
215 5 8 7.253009346002958 0.8109794226447333 12.566991410591998
1019 56 8 7.004445939258906 1.5526668759073101 10.654640867348279
217 30 8 5.774903075198193 0.925416186951657 10.285553600321556
218 30 8 5.832381641227752 1.58306258073014 9.076689864862619
219 30 8 6.744620020886885 0.9364862277505984 8.867113725666533
220 30 8 8.0031923029289 1.0278083516736634 8.030273479746182
221 30 8 8.367206489776015 -1.0065649359563662 8.613925045607417
222 30 8 7.209951252164642 -1.2724930384969386 8.38974718651267
223 30 8 5.947014910765238 -0.7126061576156628 8.139025025951188
224 30 8 6.884272052099453 0.07465948814798797 7.565607415993618
225 30 8 7.1793439433724435 1.3666485001247068 7.029489480156369
226 30 8 6.7836845233894225 0.3727860329743067 5.93286648624944
227 30 8 6.129268229953104 0.7782431997805764 4.874858862909749
228 30 8 6.344009619653999 1.7704867669070865 5.277636546025734
229 30 8 7.793737520963677 1.6179451990958098 5.1892209627313575
230 30 8 8.258816761052088 0.6472630024712487 5.816025353780046
231 30 8 8.69080364223885 -0.4710258354723819 6.045749735857556
232 30 8 8.926385978301463 -0.7399990615742659 4.044394001393507
233 30 7 9.866304261822798 -1.3260012655551368 3.4708550992074567
234 30 7 10.500105991218765 -2.2491586658585305 1.8514112288722784
235 30 7 9.654820643687867 -3.9312384463587096 2.1580372831163763
236 30 7 8.741033771751344 -3.564608693297601 0.6101673451240015
237 30 7 8.43007393100209 -5.0911398734177356 0.5687613530686056
238 30 7 6.7078935488940425 -6.134978235298617 0.7826191017609709
239 30 7 6.695823481619927 -4.039915957844873 1.2695494974023278
240 30 7 5.25283683168195 -3.7941344138466992 1.7175213919083245
241 30 7 6.229488903846972 -2.486165381948769 2.5937985178060847
242 30 7 5.585020264833197 -2.4015155799872057 4.107583545606039
243 30 7 7.489366571251931 -1.655945985957049 3.038474791038497
244 30 7 6.8117607816047565 -0.2302179211107323 3.7001248654687804
245 30 7 7.625971383844163 -0.9727877700107966 5.138084339601125
246 6 8 -0.2605660972403298 2.192983263892735 4.67876855754944
247 6 8 -0.559145411394088 1.0515722184088427 5.007841860129135
248 6 8 -1.4007983480044441 2.1493764295561375 3.2632839715591357
249 6 8 -3.6085882733942785 2.8126328490363606 4.389308383682683
250 6 8 -3.140909441923549 4.364036465276017 4.3660745933761
251 6 8 -2.447200865929371 3.428478134106514 3.959372209919168
252 6 8 -0.9391247567789216 3.777815361287992 3.6648946617036042
253 6 8 -0.14923625732305104 3.5468040614126872 4.539827985065988
254 6 8 -0.9999605449826698 3.8513903719443694 5.010379793988979
255 6 8 -2.099014723964736 3.6098578755125983 5.919263049477312
256 6 8 -2.5106087448063463 3.163651953797382 6.7963156611237645
257 6 8 -3.281027830437363 4.0896036831600995 6.709810023763864
258 6 8 -3.1570402285901125 5.177377129458903 7.948065075862139
259 6 8 -3.724190572618069 6.63302392676929 7.969245449657754
260 6 8 -4.624297404107477 7.077671706853684 8.848335333309452
261 6 8 -3.1864185491519668 6.668836612881411 9.572819960740237
262 6 8 -2.5859405441440586 5.810701864935902 9.013959493762634
263 6 8 -3.22775758529464 4.328646412739408 10.078648202646319
264 6 8 -3.6102833208392626 3.065826206908922 10.630162228273285
265 6 8 -2.757671736719106 1.9770684398520373 10.58962315379982
266 6 8 -1.6117556442926328 2.841767090108449 11.074763934035316
267 6 8 -1.2437808549573375 2.199539137715615 10.091605872203075
268 6 8 -2.0722782411603395 0.89079506783218 10.802267356653363
1034 56 4 -2.6757330564590385 -1.336001217488544 11.292426754460159
270 47 8 -2.316987926211814 -1.0018757934675229 12.677178565356748
271 47 8 -2.3093250921523216 -1.1747739863361233 14.117234598336362
272 47 8 -2.5314652144214027 -2.7279056131670347 13.384050332306852
273 47 8 -3.82923929458828 -3.86128612003817 13.208431606139984
274 47 8 -4.2982458451548995 -4.345891780434756 12.11190932216603
275 47 8 -3.7071423014721203 -3.395511334205328 10.599337394291558
276 47 8 -5.048386320920706 -3.613193764804931 10.427183758772268
1033 56 8 -4.636753186065697 -3.492561330604146 9.124391233878438
1012 56 8 -3.499578247910837 -1.3681256602388212 7.819593176840225
1026 56 8 -5.288547865083657 -1.8076546551388888 8.496350817004457
280 51 8 -6.2237683302415086 -2.258870938381619 7.843482728855952
281 51 8 -5.623847069039444 -3.385959757276099 7.128329186941457
282 51 7 -4.383258687947308 -2.8193426147869216 7.230487667684287
283 51 7 -2.913833590192162 -3.7591691389290705 7.073173513750843
284 51 7 -4.184639436561286 -4.410226719943818 5.907508633830616
285 51 7 -5.81723436490899 -4.51560869889906 6.486240219499521
286 51 7 -6.865694036439875 -4.464557174463132 7.48037283620373
287 51 7 -6.7987711349880975 -5.459091523846025 6.716751815184289
288 51 7 -7.189449766536027 -4.73120053488638 5.378790561390191
289 51 7 -7.662564636296892 -6.681227659347801 5.5680139665919555
290 51 7 -8.477841001876389 -7.172438457480687 4.462372268487616
291 51 7 -9.668934596084458 -6.0924488718688705 5.035431768997783
292 51 7 -9.696304269758205 -4.704866358101732 5.779291244718777
293 51 7 -9.799290953980815 -3.535180780481837 5.277770849395059
294 51 7 -10.14240183316996 -2.347063695761789 3.9442347621953866
295 7 8 2.3743736103745707 14.903283137196045 8.259050465798452
296 7 8 2.9332419286437896 13.472538578839826 7.899208447199135
297 7 8 2.3967752388516144 13.40976755067591 9.362361131492854
298 7 8 2.624111334144712 12.38240000919843 9.245639912088686
299 7 8 0.9505621965295954 12.673972855664104 8.60140072621458
300 7 8 1.7132832109218155 13.154864876117003 7.2244142947645305
301 7 8 1.4795489331134075 14.612451389898602 9.006776062995781
302 7 8 2.5258468898423154 14.423344011605414 9.733737635210701
303 7 8 1.7222639017944048 14.099973870568643 10.741598374009984
304 7 8 1.2879349254159327 12.554040944472098 10.788164727064451
305 7 8 0.20347791641534413 12.51987856460123 10.888917405250115
306 7 8 0.9601709975902917 11.23096980221829 11.06473543596837
307 7 8 2.526251264502423 10.680874758462796 10.636931787492642
308 7 8 3.2001519956396356 9.792593846120173 11.405632655571988
309 7 8 4.022969257516826 10.723357318441312 11.158521792527974
310 7 8 4.861679772142398 11.499486768068238 11.2221520957282
311 7 8 3.6079501144170925 10.846764856733927 10.017239205178662
1011 56 8 5.4339981620098055 9.581993954703409 8.911607911129709
313 45 8 2.620426325759565 9.96318334773407 7.110604677877983
314 45 8 2.4574092214339323 9.318099656875207 8.722634168913972
315 45 8 2.9533144647449765 7.776216035768771 9.953010954994344
316 45 8 3.099356394151768 6.599573188694679 9.91137071879575
317 45 8 2.3346646560458413 5.129441229849856 10.408562599580202
318 45 8 2.2656192360205467 4.739268291648442 8.425794242761452
319 45 8 1.8559323973243136 3.564208135720815 8.11554600372518
320 45 8 2.6520804680367696 3.1088658280805017 6.671901193998417
321 45 8 2.5067151247086126 2.1110679819468676 5.896228076521614
322 45 8 1.7038593586346626 1.565723044932261 5.381066007663709
323 45 8 1.3215954775150447 2.5937839946533354 6.265050532086735
324 45 8 0.1332136066999832 3.3566458851986862 7.085994034861958
325 45 8 0.10743434459178618 4.311994046264466 7.786897181555307
326 45 8 1.3176296018567886 4.8706146563038795 7.176629917067008
327 45 8 -0.4728204676899473 5.758606640770894 8.32872832888037
328 45 8 -1.5356097711511638 4.664567076277299 8.984554865039705
329 45 8 -1.7027946044989064 3.0712960015562776 8.368347701507677
330 45 8 -1.3988124395793349 3.0971828152826912 9.287847331215803
331 45 7 -0.5054654473478659 2.2935203223982095 8.76806899656832
332 45 7 -0.2112898895338649 1.501543613845824 9.36817900388344
333 45 7 -0.14177104324369685 0.519878153462755 10.337416350355321
334 45 7 -1.0600466332086806 2.1433056451039874 11.619436913550253
335 45 7 -0.14584971163629099 2.522362285925858 13.227008305676387
336 45 7 0.6193109855351349 3.2110285936367426 12.900253636500748
337 45 7 1.9877884908305852 3.262684138291407 13.388975116335844
338 45 7 2.0070244761627194 4.780957731088707 13.456276657623489
339 45 7 1.0438195959407248 6.330758356520292 14.018662562709634
340 45 7 0.18992457073602304 5.200768008729043 14.752691316839696
341 45 7 1.6272579789351511 5.100925219837342 15.12453074487901
342 45 7 1.9090690156078907 5.334035295257747 17.027255959663613
343 45 7 2.1410907459704873 5.833339189452396 17.91535612794307
344 8 8 6.040371342575389 19.879091053930733 -8.078486814245288
345 8 8 6.255660069969178 18.073617814482787 -8.99110738569691
346 8 8 5.071135215523179 16.799249915300205 -8.549995227473463
347 8 8 5.212212717307052 15.45886631204991 -8.351644800533032
348 8 8 6.28768433995265 15.961477079833315 -7.663743748940292
349 8 8 7.1018877138865975 15.54423101126414 -7.907424343604073
350 8 8 7.967076898921317 16.40898583977819 -9.41087606075909
351 8 8 7.0542042264963944 16.648308552851766 -10.941855212381357
352 8 8 5.941808317586772 15.902891358944412 -11.474803948827562
353 8 8 6.162189615622544 14.807287392625357 -10.79783597804354
354 8 8 7.265381453039866 15.430867913775808 -11.006567924222642
355 8 8 8.066989442880258 14.47559777611799 -10.862547568944013
356 8 8 7.90062369477324 12.81244724557646 -11.556086217933487
357 8 8 8.478014023072602 11.562928717874694 -11.896207004775729
358 8 8 9.749732377888924 11.159919656079339 -11.754345751224596
359 8 8 9.799177419415232 10.132793024306926 -10.937101331317722
360 8 8 9.99758034145456 8.987418794567217 -11.29411431832377
361 8 8 10.048677121032785 9.009325776124758 -12.78055087211812
362 8 8 11.589246436755403 8.708429056233097 -12.491198896937645
363 8 8 10.700088809407244 8.19927704589845 -12.501486673242372
364 8 8 11.417392480220188 7.052487757326809 -12.20641196896054
365 8 8 10.610506004227735 6.154012023054828 -12.717147178838374
366 8 8 9.966444138279185 5.561017456446467 -12.089591892202176
367 8 8 8.718794853168601 4.838292493418097 -13.209534556011041
368 8 8 8.237916802089234 3.1023577615669047 -13.516390177010322
369 8 8 7.165825087981682 3.9166309999788145 -12.95889466684735
370 8 8 7.724865121283449 3.733951870312457 -14.781966936335651
1038 56 10 8.539319384661429 4.620301781522142 -16.636433061481803
1035 56 5 11.672568667231786 6.048299019792769 -19.236591350269663
373 42 8 12.474977415167974 6.0301555472616535 -15.307781931901065
374 42 8 13.141755364291294 4.923126291919414 -16.825090460953767
375 42 8 13.58451584902971 3.8967826255647164 -16.165344574393746
376 42 8 12.230536649458111 3.441946014854744 -17.383060646100432
377 42 8 10.978316383859179 3.654444883368627 -19.285046495750276
378 42 8 11.142937258039064 1.6555276847504066 -19.03900152181269
379 42 8 13.000053536857695 2.4346907903616666 -18.098366079591354
380 42 7 13.385311502123502 0.9285915955731902 -18.282055857839993
381 42 7 13.711557768050762 -0.457707780284875 -18.20406223262298
382 42 7 13.215022849612886 0.31255154693079046 -19.511209221458884
383 42 7 14.481738627734279 -0.10022000325933611 -19.302169288853907
384 42 7 13.634879384152196 -1.6955221115009396 -19.10489087109729
385 42 7 14.962544504959592 -1.6965826549426675 -20.689319844913673
386 42 7 14.546589018524319 0.0031540722048731713 -21.598266620622542
387 42 7 15.513389332743346 0.3625846534436979 -22.66269483447239
388 42 7 16.548390414987054 -0.8803884069073096 -22.610322260103114
389 42 7 18.034896502429646 -2.189521595444339 -21.66572323047897
390 42 7 18.899536965492203 -1.8845680473076252 -20.47663977924954
391 42 7 18.856626403168928 -0.5947619906233024 -21.2547122336289
392 42 7 17.316870531771038 0.05228368582871462 -21.245646981730157
393 9 8 -4.767451472069921 -3.6896525727101257 -15.97435550647163
394 9 8 -5.281579054510812 -4.885611109301771 -15.726658216928815
395 9 8 -5.378036358790244 -5.073582814581273 -14.437789647397672
396 9 8 -7.063526807606928 -4.6604574864055355 -13.75460087547603
397 9 8 -7.213947528490092 -3.7072133839909363 -14.488154372697307
398 9 8 -6.329774105505519 -2.6280131952361647 -13.214856879917287
399 9 8 -8.072678211453644 -2.505730197963317 -12.062726822552676
400 9 8 -7.5145801906336995 -1.5715938927757145 -12.232008688542708
401 9 8 -7.879627707890315 -0.11021787453562262 -13.251172528669604
402 9 8 -6.403370508734348 -0.9013938591916821 -12.380748018859215
403 9 8 -5.105564669576155 -0.9048630322601026 -12.94664812607308
404 9 8 -5.488913914761476 -0.4281220447676854 -13.846206275060528
405 9 8 -5.510601061801995 -0.04475287925648747 -12.012138470027102
406 9 8 -6.91247658650861 0.028707529959527762 -11.021480447678668
407 9 8 -5.7355631572602634 1.0183543573227039 -9.341604811927649
408 9 8 -6.126852366331923 0.9482806564560186 -8.08974704443568
1010 56 4 -4.167400770366495 -0.3679756657367717 -9.721292816058757
1022 56 4 -7.491289539961239 0.17437388176513655 -7.92160012281226
1016 56 4 -5.275911225303024 1.6291436303684277 -7.750825313894386
1029 56 10 -4.727896690872062 -0.4833239577531332 -7.479514653535805
413 31 8 -4.07263433953613 -1.2650119099665698 -7.793283643666153
414 31 8 -5.227983864916095 -1.672079461368258 -7.30756805183999
415 31 8 -5.786244931652571 -0.6850172809491286 -7.735114311152682
416 31 8 -6.7555444504415165 0.29936513133573195 -6.95565699413435
1021 56 8 -7.529607601897918 2.8996571122734562 -6.014367490855855
418 33 8 -6.449226135095867 -0.8522098091204474 -6.1773348643602235
419 33 8 -8.049078161166413 -0.7733669391394302 -5.4046824758662515
420 33 8 -8.66308909167913 -1.3059291563351785 -4.437831952531616
421 33 8 -9.831950739222979 -1.5398121150770279 -5.715801680310765
422 33 8 -11.084852318154411 -2.241604731218814 -6.331941472302034
423 33 8 -11.576043919962528 -1.6236003412729785 -7.24867232101347
424 33 8 -10.429489172880931 -3.130035675561747 -6.948090116916398
425 33 8 -11.039355546934932 -3.4289306124344185 -8.387337817320857
426 33 8 -10.758450823252817 -4.504058526186355 -8.12585855793823
427 33 8 -10.428147916466077 -5.632331566100465 -8.636195950809487
428 33 8 -11.710733969704945 -5.997123972361546 -8.272696656259912
429 33 7 -13.266266758112568 -4.928803630792638 -8.87689979047335
430 33 7 -13.80647643745716 -3.8888551541251055 -8.064781129432351
431 33 7 -13.696271917060049 -4.2715756570628916 -6.887897253792669
432 33 7 -14.311627922138191 -5.972640016971821 -6.802834490250879
433 33 7 -14.808986041543232 -7.132100563534802 -5.890999650147045
434 33 7 -13.569899565428535 -7.725024940046753 -6.111415785743682
435 33 7 -13.3894883996926 -6.960691075311558 -7.287292918648572
436 33 7 -14.36822405773499 -6.7612320915545245 -7.928814028590984
437 33 7 -14.933852537670509 -8.183147923385 -8.193151857000874
438 33 7 -15.04314839238614 -9.650798594065272 -7.8218806543286385
439 33 7 -16.030994421334633 -8.08679746543925 -7.309037513363482
440 33 7 -16.83394530086613 -7.786673059518324 -5.844564176665515
441 33 7 -15.204296814779145 -8.56161204721369 -5.891905338194274
442 10 8 -0.43846629738185505 15.030531503397901 -1.5536428794925647
443 10 8 -0.6956122495144015 16.106670878572075 -0.9095706782929679
444 10 8 -2.068550003545173 16.58383806721875 -0.3206613390535312
445 10 8 -2.284867787514683 15.487156667131675 0.3263356079590297
446 10 8 -1.4420617785807652 15.334936346734535 -1.4952708640822743
447 10 8 -2.12084009989015 14.418665194657134 -0.11019103784732348
448 10 8 -3.320474970494976 14.524073910564532 -0.34085513560836767
449 10 8 -3.979556917867616 13.639732505110187 -1.3350603482682455
450 10 8 -3.037300286816905 12.60859968969559 -0.9677086952451517
451 10 8 -2.76208030601662 13.456363823377329 -1.7039946906121788
452 10 8 -2.202450055124658 12.113027223068736 -1.5307088912978903
453 10 8 -2.5430820028920387 10.869612073904275 -0.7875370461067165
454 10 8 -3.630876505632427 10.031822574513244 -0.2506048268801403
455 10 8 -4.29570559652567 9.94556910753601 -1.700555913990733