# Generated from readdy-to-lammps

1005 atoms
654 bonds

10 atom types
1 bond types

-30.0 30.0 xlo xhi
-30.0 30.0 ylo yhi
-30.0 30.0 zlo zhi

Masses

1 1.0
2 1.0
3 1.0
4 1.0
5 1.0
6 1.0
7 1.0
8 1.0
9 1.0
10 1.0

Atoms

1 1 8 -15.588601593271303 -8.543415254640259 -12.12251324410566
2 1 8 -14.693754182135345 -9.621811822794132 -12.996407395498187
3 1 8 -13.402989057062047 -9.040645342789723 -11.512512114940261
4 1 8 -13.1596525480047 -9.602153047985329 -13.306479642702483
5 1 8 -11.575908496725823 -8.932018892508275 -14.79677524951008
6 1 8 -11.30222050902145 -7.812203146768566 -13.859335985914225
7 1 8 -11.319894903857165 -6.176857389600196 -14.120498707813484
8 1 8 -12.289063833815543 -5.711426339085804 -12.906722736398006
9 1 8 -12.066386860466343 -5.853853987732824 -11.546858829624002
10 1 8 -10.998429110338117 -6.3696777193408085 -12.672243868268085
11 1 8 -11.094462077588345 -4.903458005593903 -12.932574193617176
12 1 8 -10.777420519649935 -5.527446847115642 -11.342677415914038
13 1 8 -9.096728918359334 -5.344222151766698 -12.097006786289048
14 1 8 -8.539526954719525 -5.707819981283517 -13.051550409784284
15 1 8 -6.929733376525353 -6.770066660024463 -12.97464441365671
16 1 8 -6.7987291241839065 -6.244320093653258 -11.68099906777522
17 1 8 -6.974217287645609 -6.584180717005625 -10.13205208249389
18 1 8 -6.451651878024278 -7.511091757279681 -9.440255045735757
19 1 8 -7.717048961288136 -7.883968052749708 -9.880583111763578
20 1 8 -8.778337963353685 -7.324579836985493 -9.406707143937291
21 1 8 -9.448475157469211 -7.90482319259021 -8.021859732416042
22 1 8 -8.407089344862081 -8.831810762919552 -6.593830004057432
23 1 8 -8.681235234968263 -9.268959737897886 -8.448206566597745
24 1 8 -7.678593579272332 -9.700497123320064 -7.202707857765429
25 1 8 -6.011211866966533 -8.767780234296959 -8.15531611356406
26 1 8 -4.680003380363595 -8.828102756481771 -8.608754502955948
27 1 8 -4.180029714753054 -8.55324170728604 -7.2315857906600245
28 1 8 -3.425145677282219 -7.691204604062683 -8.550642617381442
29 1 8 -4.152158067224731 -6.375563106323358 -9.099064081675376
30 1 8 -3.239657757349537 -6.855959976587112 -9.811474814099613
31 1 8 -3.9592883389945954 -7.656168779940068 -10.328466886021083
32 1 8 -2.83074558644378 -7.683228436280033 -10.61832824868323
33 1 8 -1.985652518362054 -6.9619632289195 -10.316371604265214
34 1 8 -2.503008758613477 -8.12217509761038 -9.599697504635744
35 1 8 -1.145346889762745 -8.834508258921899 -11.248096882467298
36 1 8 -0.6242118566135282 -9.060541201837742 -13.400571519901545
37 1 7 0.26186013389518054 -8.235397385078704 -12.656672242317908
38 1 7 -0.050454645392483025 -8.00929521698154 -11.603605062279675
39 1 7 -1.6935063034967834 -7.633330661053238 -11.179128323874062
40 1 7 -2.6130718159749016 -8.662917872332555 -11.483820379427124
41 1 7 -4.105290764903119 -8.680445163887846 -12.501671791179229
42 1 7 -4.663988010152547 -7.095119729368766 -12.326825450275178
43 1 7 -4.527994946475825 -6.776190519424945 -13.481830476163159
44 1 7 -5.237855782978042 -5.31204822260681 -14.039855511249556
45 1 7 -4.3835925099503 -4.158176327805138 -14.5339379727671
46 1 7 -2.8861164368057777 -4.392056009234618 -13.476567349509383
47 1 7 -1.6776982498411244 -3.471359085597674 -13.926988641652855
48 1 7 -0.5294818150690307 -2.8644030165001335 -13.669518548461475
49 1 7 -0.9520411038052338 -2.692748469665661 -11.965362910283249
1050 65 10 -0.9677650489557906 -1.9440586796703605 -1.4476319512004376
51 65 5 1.3645058716691212 -2.593210644888616 -3.638605318117075
1046 65 5 3.321931109921373 -3.89014369692773 -3.3776090418905342
53 65 5 -0.24121277906626343 -2.6179094535478726 -2.0658182507980203
1042 65 8 0.4338406103619055 -3.5130138966125957 -0.030843458438761292
55 55 8 3.0096978106671535 -5.288430131053612 -0.9772287894959983
56 55 8 2.528995028792148 -6.255587584257593 -0.6684289280762065
57 55 8 1.9327415636322458 -6.5047214249311285 1.3369570803944038
58 55 8 2.321067988037738 -6.275860347267863 2.92632110903758
59 55 8 0.8257061890018427 -6.399539500761683 2.8342992910983167
60 55 8 0.8812841205244373 -5.468014689472278 3.7074887147598887
61 55 8 1.0523425886273314 -4.438665634571497 3.643804460436379
62 55 8 0.9995974305807277 -3.938735346979526 5.026108501544247
1007 65 4 -0.5169629048032609 -6.2448231256949205 5.446728606528182
64 27 8 -0.2711523172785996 -2.7568453450474912 1.8095958496917626
65 27 8 -0.053759673703187995 -4.484374827580213 2.4367765477343695
66 27 8 -1.2121726408264846 -4.554180631097924 2.201287910254926
67 27 8 -2.5865110961685565 -4.136526284564771 3.222944629388243
68 27 8 -3.551646114902334 -4.965534056765225 4.541096108429043
69 27 8 -1.6502472972423876 -4.189994702295 4.809168031312341
70 27 8 0.09345564297154549 -3.4118551472799608 5.664966652342701
1036 65 4 -0.651222536395342 -3.7478747353114894 4.7003773007306675
72 65 5 -0.38918605509901094 -2.098843667373441 4.395420710622461
1009 65 8 -2.644203308077788 -0.5149793910265081 5.116778781818445
74 57 8 -1.5990113789828422 -0.30547798006816645 1.5714334310805793
75 57 8 -2.585060613933439 -0.4379068565677372 1.8390394859803991
76 57 8 -3.0356134833376367 0.480341855990569 1.595134139996567
77 57 8 -3.468253362630665 0.5796701491652676 2.5964333830224073
78 57 8 -3.994603495521555 -0.5880248976498023 1.3685798166951695
1037 65 4 -5.681621184964182 0.21746223379371324 5.974993043489709
1017 65 5 -4.362062435958473 1.037034226756774 3.445480318050135
81 60 8 -3.347927311571379 2.771835278682694 1.9465184482261433
82 60 8 -2.6937014906216854 3.4180211817348294 2.273348578591314
83 60 8 -1.6451811239916136 3.970859263436128 1.9684926344202305
84 60 8 -0.7039575298929829 3.0593214070409283 2.056715099118894
85 60 8 0.5911946980045507 1.5396339431056707 1.7318183601413286
86 60 7 0.01315875208334756 1.1219772861424144 3.6357405417616624
87 60 7 1.0646630388834961 -0.24317719695769183 3.3602224034070436
88 60 7 2.0887081830121983 -0.8325388072118015 3.320061501443232
89 60 7 1.678764790078962 -0.6539713158142132 1.8038574287015032
90 60 7 2.1526763467126138 -0.35794190994882574 0.052194435021052595
91 60 7 0.738938890697655 -0.8391602770189297 -0.4054539350107548
92 60 7 0.2753842353743009 -1.7017448508295205 0.5987469735973284
1044 65 7 0.2861630329489046 0.3554242354900277 0.3819342116785521
94 59 7 -0.26524381622041154 1.4006325826946886 -0.28537077612342
95 59 7 -2.328879811065522 -0.2710691030848336 -0.7539043468918988
96 59 7 -2.1711653854059887 -1.2451713467659993 -1.2292926910985342
97 59 7 -1.65631311368052 -1.4675783567108298 -0.36598430666610626
98 59 7 -2.332735276013332 -2.8120614970224693 0.2622995938558467
99 3 8 0.7901531697407559 -9.791592133538826 2.379123608463221
100 3 8 0.4356424521785669 -9.431284006202727 1.0239160260595064
101 3 8 0.3759277968471674 -7.560348814115657 1.02764755219105
102 3 8 -0.1766681028207363 -6.527098827471864 2.2054926620130426
103 3 8 -1.0513463866192743 -7.003902324806521 0.7575303183014857
104 3 8 -1.1847404966115385 -7.375726144020346 -0.35251166810690665
105 3 8 -2.397298287159033 -7.617417100767284 -0.719291232234075
106 3 8 -1.8489218377957164 -7.871740145523668 -1.817234102528421
107 3 8 -3.2576395494440598 -8.487391796879582 -1.712908030041684
108 3 8 -3.727911035140708 -9.60970163802272 -3.1621405253054204
109 3 8 -4.740018392416836 -8.665387765727427 -2.1563003444078945
110 3 8 -5.20096352981917 -9.801854558829769 -0.649937134795091
111 3 8 -5.349254320166064 -8.25739857164823 0.4246804814970714
112 3 8 -5.81179845925833 -9.38987678457851 0.8137876451248794
113 3 8 -6.865534733362498 -8.596869001203007 1.4185232686786369
1024 65 5 -3.9246250491391597 -11.500939648156725 -0.605563400587279
115 44 8 -5.8848429622257035 -11.93712173142613 1.6902698377281205
116 44 8 -6.4064464648158 -11.356106885094631 2.4112169327058095
117 44 8 -6.1677945410848 -10.104559608792112 1.6907042751978096
118 44 8 -4.543935025276276 -9.296840584639753 2.0120422344683786
119 44 8 -5.916918539292044 -8.053968451060319 1.4421205615340391
120 44 8 -6.746354201519316 -7.88428284881411 2.308465920570994
121 44 8 -5.599583320060938 -8.503901401190793 2.7079261344293486
122 44 8 -4.409319163152525 -7.8811561804670545 3.687278890975425
123 44 8 -4.522075520085849 -8.336972501050235 5.188673546866744
124 44 8 -4.752675224904989 -8.89717500541673 4.314109527888538
125 44 8 -3.5122873773811203 -8.912270983691538 3.4282647996636704
126 44 8 -1.7707660031726349 -9.053359946897624 3.378242575778662
127 44 8 -2.6760225501574912 -10.364392536081143 2.743779628713298
128 44 8 -3.840727630973828 -11.795208210380329 3.2909612359936884
129 44 8 -4.658405305025029 -12.401940473391033 4.722638687472936
130 44 8 -5.20980642867884 -12.576720782396732 3.2412116370503767
131 44 8 -6.105825670977964 -13.112808528634638 2.650746011006034
132 44 8 -7.280711163060412 -12.72954138915965 3.1644890433845942
133 44 8 -8.879119697926878 -12.153988814989484 2.8465440428344295
134 44 8 -8.749363868766245 -13.094537722564134 2.4519202335769807
1025 65 5 -6.603519367512025 -14.803374036309966 -5.23250043161769
136 41 7 -7.03625174825326 -14.311871840001302 -0.2318253645283915
137 41 7 -6.2263492264882006 -15.677881815407867 -0.8083857182893522
138 41 7 -5.924777347784669 -16.417491442699607 0.8184640695424446
139 41 7 -5.255593520797573 -16.382945997070305 -0.823404487027632
140 41 7 -4.324121933504837 -16.17161007986436 0.4043624951499991
141 41 7 -2.5511463026966488 -16.02968859530559 0.716984220064693
142 41 7 -2.298047178657124 -15.62794158606759 2.57961146668175
143 41 7 -1.705341869387816 -14.24684361168973 2.189982585381321
144 41 7 -2.6498071068736864 -13.640028084183562 1.674870012643855
145 41 7 -4.098218308156875 -13.48057426941594 1.704009836413586
146 41 7 -4.445070122647964 -13.333892118992505 3.2403448585812265
147 41 7 -5.763726223047055 -11.809547418041037 4.305539583745768
148 4 8 -0.6689197409604507 12.602924736966584 17.946186501104908
149 4 8 -0.7734420151392993 10.452344178650932 18.446274737367546
150 4 8 -1.276432563686365 11.232332847491323 18.035679478098643
151 4 8 0.12232041019755603 11.057895617861961 18.610350761090572
152 4 8 1.214676158681613 10.021869767180439 17.949190415937803
153 4 8 0.5781024088832095 9.022661492950267 17.84937711402757
154 4 8 -0.9084289625708931 8.658300347243594 17.96910611622572
155 4 8 -3.0185828910200647 8.938141948235252 17.69166380589191
156 4 8 -2.9981970351835017 8.788580466670766 18.94944024049393
157 4 8 -2.5776123198169727 7.651546838922802 18.317733444900455
158 4 8 -2.877867184347008 6.9533430671596275 17.57213340977779
159 4 8 -2.5746851390544614 6.948440514459293 19.400892208312207
160 4 8 -2.3610922830507066 6.385512184698971 18.357871247327612
161 4 8 -2.164454679821526 5.35025644047699 19.747541116610257
162 4 8 -2.30716588874064 5.559585700864994 20.964115517312564
163 4 8 -2.9775340311467238 4.32225057980619 20.663366871367035
164 4 8 -4.240409523367228 4.992161858854407 21.287534694230427
165 4 8 -3.3575602830573565 6.417559292637112 21.418647245754805
1031 65 10 -4.503083481178439 7.037209021095783 20.971493014973664
167 4 8 -4.259639250311405 7.457337031985696 22.472911812874326
1043 65 10 -4.0079287588546615 7.657843749958142 24.14635397459815
169 4 8 -3.9821551234257866 5.811521463790891 22.899976394751157
170 4 8 -4.464122312720564 4.350788682645516 22.75203395837586
171 4 8 -5.975811976735924 4.000387506307436 22.990006155782407
172 4 8 -4.8127481602071995 3.185332697542435 24.984742994956108
173 4 8 -4.464445869738077 1.8985061848605813 24.743904770062432
174 4 8 -4.393440185966655 0.35743352581389715 24.591706746703508
175 4 8 -3.052261702868175 1.282609620308241 24.867211159941306
176 4 8 -1.7702829874108006 0.09053498899075049 24.418417805273435
177 4 8 -2.5366510636280384 -1.7820659184811134 25.180436973257837
178 4 8 -3.3158296550826694 -0.8991037039475139 26.19421315804029
179 4 8 -3.4455034135482014 -2.4235737873407075 26.894719646638244
180 4 8 -4.038721798137626 -1.6344714203670383 27.64262673727919
181 4 8 -2.4911408247349605 -2.5951781499326945 28.585909304201948
182 4 8 -2.674858866408232 -1.7561726981361474 29.38898311227261
183 4 8 -1.1850150158503858 -1.187073623216584 29.563726804825123
184 4 7 0.26948535365615833 -1.0968778043484746 28.754826626502858
1028 65 9 1.6544229175180856 -1.2500641327354252 28.381883658295834
1023 65 9 1.8355261167601746 -1.3020669488807113 27.079618937442657
187 4 7 1.7413707772047242 -1.0607765819830661 25.75316692740985
188 4 7 -0.020808599603845953 -1.3806142018434895 25.95501249193169
189 4 7 -0.298593107876441 -2.054060726358814 24.70156991633292
190 4 7 -1.785652712563567 -2.285485614856058 24.535633589579458
191 4 7 -2.6005758829357135 -3.9513807628801474 23.856244599924516
192 4 7 -1.8695828757255186 -5.304044117647359 24.070067388596662
193 4 7 -2.8763623830439022 -4.559283826196456 22.27586734503074
194 4 7 -2.6329875475626907 -5.698126501915489 22.720180473696036
195 4 7 -2.709286112967272 -6.810722811975627 24.114558404834934
196 4 7 -1.3448152015618844 -6.378692238733069 23.249973179873656
197 5 8 2.240341160992258 -3.0502698738654264 13.662246561939297
198 5 8 1.5493134069497858 -4.43728920768043 13.03158805631859
199 5 8 0.9787622174936468 -5.046056421905235 11.73806982202736
200 5 8 0.9208327053004406 -5.364939901447696 12.763387403707519
201 5 8 0.7896247769646483 -4.01397331459871 14.424647459131908
202 5 8 1.3233201104765824 -2.955063658536336 15.114389199272242
203 5 8 2.2381643789888543 -2.2065567615109973 15.78935906099962
204 5 8 2.5789237070803788 -2.539193011676418 17.19502022908334
205 5 8 3.2360389608927744 -2.1058642064865394 18.12606908314116
206 5 8 3.7376759929447165 -2.025856042392183 17.144489786554992
207 5 8 5.163465302706038 -2.561081309947124 17.089928275044777
1056 65 10 5.651733166444361 -3.935911488959533 17.082441702549044
209 5 8 6.061437017213268 -2.8281765564911283 15.874410356319535
210 5 8 4.495389120116736 -3.308872829899978 14.758855233762135
211 5 8 5.248619565994017 -2.174307620339349 13.92047046336215
212 5 8 6.4933077292705335 -1.6997123490368446 13.230430631561646
213 5 8 6.162172637492981 -2.880855460420851 13.400527172874348
214 5 8 6.150229284969245 -1.5610534920252868 14.426005509196788
215 5 8 6.758713527067544 -0.3904949018525261 14.776217303058731
1019 65 4 5.204463384561463 1.215804329474118 12.02334409096129
217 30 8 6.1710344665053825 1.1096883071212649 10.819146581746825
218 30 8 6.2579289739833195 0.8883331844733631 9.184706046016109
219 30 8 7.846001144701665 1.1068543162109432 9.099871743736406
220 30 8 8.651101038607935 -0.2972521213009549 9.299377132234365
221 30 8 8.349964091690403 -1.3976192842560686 9.952595850310022
222 30 8 8.119698746945335 -1.347521931845529 8.631848217416303
223 30 8 7.216739134591311 -0.036927776099143834 8.937198096200907
224 30 8 7.145224986454402 0.039396693385638254 7.5028314517516534
225 30 8 7.822667089201944 -0.11982412334738343 6.712961292689186
226 30 8 6.6293267590140355 0.23218942411176077 5.821361567428618
227 30 8 6.636907042678556 -0.5603234715808978 4.3362146854690184
228 30 8 6.980100334877086 0.4290307394817058 4.654342570899845
229 30 8 7.526580122693914 1.2631816467589458 5.677765617373347
1054 65 10 8.551000482095786 1.263182291494563 5.256761772030178
231 30 8 8.7087376773675 -0.24588116454789471 5.486995867394851
232 30 8 9.653229666987679 -1.1027094184358464 5.3401487349365
233 30 7 9.626368326759303 -2.4768390682721906 5.007108460970204
234 30 7 9.22326636774656 -2.6057874458038657 3.326389475591647
235 30 7 9.617534071950194 -3.0183959227109267 1.6021078896740066
236 30 7 8.383609016943964 -3.1488010745828703 2.010970991941623
237 30 7 7.634728571288105 -3.9420553371883003 0.9415710612744924
238 30 7 7.921725135566899 -4.706083171782652 1.9012504495632572
239 30 7 6.50729850295155 -3.7453163818130353 2.030558622037373
240 30 7 5.9948751674580745 -2.310080931188946 3.7727229098363195
241 30 7 4.817441800355855 -2.1409839211464066 3.2934890828444825
242 30 7 6.381136949866321 -0.8973775666139964 2.789377691697909
243 30 7 8.529296080384382 -1.4698404750448912 2.6045389794051452
244 30 7 8.215276783040835 -0.34448749993538746 3.611083290871477
245 30 7 7.543604273257587 -1.2880766123192693 4.762467059482598
246 6 8 -0.5861209822829492 2.7366616382532043 4.206561315436586
1052 65 5 -1.2875624554509877 0.35351909099716894 4.047777448110451
248 32 8 -2.9096660218810024 0.5221453413256563 5.2271778845067125
249 32 8 -3.4360783481925354 3.3869970330552532 4.824362542085307
250 32 8 -3.230302160821357 4.42748806280314 4.245174568185346
251 32 8 -1.8840439585136115 4.918183019191228 4.015404700524335
252 32 8 -1.2835505690767912 3.644422661096482 3.639451299601225
253 32 8 -2.21585992792897 3.0710191626272327 4.653683457827732
254 32 8 -2.2412346720241576 3.6315226913195717 6.150985288145931
255 32 8 -3.11627288374818 2.9564961854770244 6.098015030554838
256 32 8 -3.9893576609972 3.6573790430865696 6.526921544722601
257 32 8 -3.3830621045274007 4.953320956241101 7.708751317529388
258 32 8 -4.059477723884124 5.323436405963119 6.5800806304454555
259 32 8 -4.1119181495188855 6.309879746331732 8.186114353975904
260 32 8 -5.294964643025749 5.545400875392181 9.247607661377545
261 32 8 -4.062576934784207 4.8231215236067255 10.305692697831017
262 32 8 -3.125889981467023 4.913686216032463 9.65354975360151
263 32 8 -3.4051906280480186 3.979933720781955 10.092028551839642
264 32 8 -4.326356051316367 3.47245175512708 9.79719599200045
265 32 8 -3.227420022508529 4.37177334152681 11.169006007320766
266 32 8 -2.078346275518303 3.6024594445218394 11.02088571020493
267 32 8 -2.3474476047739987 2.6121073703081104 11.025991356466987
268 32 8 -2.5477664142086667 0.5521303517257222 11.574335514883801
1034 65 4 -6.100657763719657 -1.3821046060438282 10.685829863632785
270 47 8 -3.2869426510854836 -1.1295704032675171 13.306730856093656
271 47 8 -3.41315792835521 -1.900715495887789 14.9668096507288
272 47 8 -3.854107714389511 -2.0977498261959826 13.766713283715617
273 47 8 -3.2055416484930115 -3.366626322138809 13.544850417666337
274 47 8 -2.8404372541754164 -3.9571018402848983 12.30104831219786
275 47 8 -4.152757148488464 -4.5277296820842805 11.811413512925638
276 47 8 -4.111260054709913 -4.654864269218967 10.542556132385004
1047 65 5 -4.75351554727085 -1.8997774752356427 9.33407216215314
1012 65 4 -1.5346066440976678 -1.876002595988911 5.21855519568433
1026 65 4 -6.115631122017144 -3.2157642974068184 9.232248423608395
280 51 8 -6.997586699713286 -3.020562584029509 7.999284745768469
281 51 8 -6.064312140915689 -2.3789411514992196 8.571643656074315
282 51 7 -4.8459849854086094 -2.4736097213991792 7.220942620574704
283 51 7 -3.862053658896887 -3.080290798891974 7.080949859840727
284 51 7 -4.811740275780189 -2.4435740688223024 5.8344839214591335
285 51 7 -5.777934858874777 -3.189471581882603 5.034262298781415
286 51 7 -7.059559005987357 -3.387423795179149 5.840015068167602
287 51 7 -6.424538896917863 -3.7445067545224537 6.49271198155787
288 51 7 -6.7401370051028655 -5.755294668116407 5.973947180404361
289 51 7 -7.8708288195591924 -5.205400316374175 5.724318223680232
290 51 7 -8.913614637883047 -6.051495508726438 6.488890307127425
291 51 7 -9.173887434830656 -6.686937401625457 4.7357320244842525
292 51 7 -9.505970535346444 -4.92323012376351 4.644854537512189
293 51 7 -10.470721598841902 -3.238894731074464 5.040600281175675
294 51 7 -9.968221277594294 -1.292797718444419 4.538779549989561
295 7 8 3.050471477022201 14.777537430268078 8.451344213916657
296 7 8 2.7101892412224746 13.582363353702332 7.543869565544863
297 7 8 3.711924187075554 12.732521534384494 8.693417677753065
298 7 8 1.7552599804615976 13.3141032181073 8.493072578280824
299 7 8 1.9494812178979155 12.114572931409777 7.955129152491231
300 7 8 0.5978495975105759 13.526524828629649 7.9216389705891235
301 7 8 1.4378095511890328 14.985084209293282 8.985307576587259
302 7 8 1.6810431713299814 14.31842312964375 10.267780108145557
303 7 8 0.6050051042001192 13.909739612956727 10.031740105898809
304 7 8 1.9799052607377639 12.70675677107925 10.251170600153266
305 7 8 1.1049035396494995 11.225952187864463 9.489515968914308
306 7 8 0.8666864457159864 10.003973516354085 9.710848432113249
307 7 8 1.2021698211649827 10.588635415346861 10.613253051258244
308 7 8 1.7730660059051073 9.844387127641294 11.094175481790634
309 7 8 2.6997550791510725 10.493557401162361 9.5260758887453
310 7 8 3.626074473531456 10.916409348077078 10.447914579287135
311 7 8 4.548157699915665 11.517773837395671 11.556058470333587
1011 65 5 4.940203144987578 8.28403466556863 8.761993077802016
313 45 8 1.8173542337712185 9.468889351679707 9.507906721187457
314 45 8 2.71005288285012 8.125624588137054 9.582752158706965
315 45 8 4.098087856931224 7.31157701531926 9.565382156776113
316 45 8 3.2186794169334596 6.342813968499772 8.88965938818329
317 45 8 3.1847175542462396 4.990115953175016 8.839063857461328
318 45 8 2.5223138632610267 3.822959077433026 9.049179500055052
319 45 8 2.531540607898003 2.6870635355245094 8.947387928626236
320 45 8 2.8800327139301647 2.2658539813476937 6.636737834831807
321 45 8 2.7346359475531297 2.5429490564550505 4.7924317371879415
322 45 8 2.5735515031106133 1.130219046993689 5.534361851505025
323 45 8 1.7997535259180748 2.562505109729551 6.039121672298187
324 45 8 1.1512472739629627 3.8120017082385216 6.061312341596538
325 45 8 -0.17210324275086125 3.4538460837059404 5.6956856575459085
326 45 8 -1.2239392574047647 4.945315711548462 6.274829029059261
327 45 8 -0.7136398474780078 4.018404123995729 7.767187489485069
328 45 8 -2.3379985082340204 3.7050822879781267 8.665489644227257
329 45 8 -2.0276717602047896 3.0929394711484566 7.614107227014224
330 45 8 -1.0338336148625435 3.0197787675148238 8.880527940708262
331 45 7 0.051363502712398014 3.3416804713074226 8.544941081205454
332 45 7 0.12112113884484246 2.509545666657187 9.695159815723635
333 45 7 -1.058256917609185 1.7054836089738319 10.533421618163437
334 45 7 -0.32207061298486467 2.2808952896444454 11.594186704550461
335 45 7 0.8404556116234438 3.2991971319555313 11.922569301828227
336 45 7 1.3339747896411482 4.528511053930241 12.141195194402778
337 45 7 1.0684453678475476 3.2901687425871757 12.951377239502785
338 45 7 1.8758775684510203 3.771431902432245 14.476487342141231
339 45 7 0.923649493228465 4.472158009749915 14.437495870960394
340 45 7 0.10745777676466015 5.666472567571366 14.973046980100102
341 45 7 0.5106052928762811 6.178301705053466 16.242412829380214
342 45 7 1.7132456626044459 5.616670020645455 17.355269677169293
343 45 7 1.1433541862567198 4.446500727778929 17.217916679485903
344 8 8 7.113393181823149 18.533722521615942 -9.187384329144551
345 8 8 5.8765936815394 17.87665822142456 -8.580503836561082
346 8 8 6.805311211838257 16.735428621634036 -8.71537004532775
347 8 8 5.9868245052355435 16.42610680205754 -8.10487924852173
348 8 8 6.217401579481223 16.43239708473977 -7.075369352391093
349 8 8 7.928329646657764 15.247941208383262 -7.941491287849462
350 8 8 8.706424631335887 15.926609132607883 -8.707795366675898
351 8 8 7.687621908765398 15.728728571622767 -9.636670399028246
352 8 8 6.9419661715832275 16.94094563779618 -10.298480551684934
353 8 8 6.654326280772472 15.799390902162928 -10.73007764994073
354 8 8 7.516659843099147 15.056234918000618 -11.519428124844467
355 8 8 9.452654859938734 14.879181396867983 -11.296108073651041
356 8 8 10.173459271087028 13.395389390864041 -12.317520478945559
357 8 8 9.777270079757953 11.660148421385365 -12.61689749397717
358 8 8 8.614940576330524 10.834090434515137 -12.29978604440004
359 8 8 8.67379912599787 10.068239194781487 -10.968641650580494
1057 65 10 8.805481208102083 9.516886364974555 -12.282016166885237
1048 65 10 10.49300251128684 9.446631293226917 -12.456034522036207
362 8 8 10.828742767431226 7.818009776796758 -12.652270749168856
1051 65 10 10.720672568406247 7.07284997482557 -13.516407936337817
364 8 8 10.726790638415734 6.284436265451028 -12.27839271886245
1063 65 10 10.043582235158048 5.5628232605246986 -11.496659547009767
366 8 8 9.57885610099981 4.536775975309033 -12.361163670980378
367 8 8 10.238359653639682 3.5799573659763917 -12.411089153512465
368 8 8 9.651428813755974 1.6197888547887918 -13.252585221143379
369 8 8 8.550933526913035 2.4609631331444715 -13.552179573506212
370 8 8 8.681286888871787 3.732458143636246 -14.792367430140246
1038 65 5 9.762202150535687 6.032469872921816 -15.473007351762245
1035 65 5 14.231932834269982 5.785692139651208 -17.847532512470064
373 42 8 12.582805010723927 4.939353927809074 -16.037899803410017
374 42 8 13.180750384787446 4.652636306119881 -17.12886247214877
375 42 8 12.693773679267705 3.697791776158223 -18.313824448600478
376 42 8 11.615866902571101 3.9345746055967474 -18.409130455228617
377 42 8 11.8657915854874 2.537112230323976 -17.071324469949516
378 42 8 10.971040624133405 1.933016817240772 -17.91918959371153
379 42 8 12.185695153832595 1.3095255519538207 -18.13371238734871
380 42 7 13.243619944212186 0.6695768782257662 -17.309769307407006
381 42 7 12.057281678428556 0.6097542764815658 -17.282439546163488
382 42 7 12.94107561153947 -0.07661563913473307 -19.093965619665155
383 42 7 13.318609815882624 -1.044546371402184 -19.67775660842406
384 42 7 13.579087971826226 -2.559356381731809 -20.141733657204203
385 42 7 13.778272773466115 -1.2866777954243507 -20.937489867097728
386 42 7 14.721999781396715 -0.3556072569459431 -21.73292607084015
387 42 7 14.928837297794065 -0.9306672139852682 -22.950377468058893
388 42 7 16.033372238070527 -1.8964728160371227 -23.291221557243844
389 42 7 17.54320792302138 -2.1745240859911013 -23.285766442959243
390 42 7 17.184743492218818 -0.7356419111137745 -23.041281907338437
391 42 7 17.896581090134543 0.1975350953494194 -22.378980743635687
392 42 7 18.19514033370468 0.7879682915435803 -20.953281913552566
393 9 8 -4.7576385092464575 -3.271919095343864 -15.208543819890222
394 9 8 -4.2553766232286465 -4.381100087270382 -15.775710979055303
395 9 8 -5.676947086190797 -4.707697857515337 -15.46666363046623
396 9 8 -6.412746096563297 -4.4569878354896515 -14.660300747909059
397 9 8 -7.637861016790807 -3.7754450816003433 -12.867113626430323
398 9 8 -8.24923141282966 -2.4834448253156194 -13.267857001071345
399 9 8 -8.914236263703284 -1.231840469053693 -12.164781451396362
400 9 8 -7.798909559560559 -1.992311159871772 -12.416097620340029
401 9 8 -7.108518938695952 -1.0444257261537893 -12.7063076109384
402 9 8 -6.4137654223639515 -0.8559982506922785 -11.648230443873883
403 9 8 -4.922686783019807 -1.1419258063671558 -12.598547552447624
404 9 8 -4.073801212156323 -0.2427911810777242 -12.70664341749786
405 9 8 -5.867489835638639 0.2229075253677426 -12.480235229896033
406 9 8 -7.448679187545155 0.1815794278161447 -10.872937917444592
407 9 8 -8.052852760695584 0.4644975372606809 -9.289220743634623
408 9 8 -7.212560686843607 0.1601880210806427 -7.619630985962542
1010 65 4 -4.018430868791437 -0.5828969621255415 -9.502773606500632
1022 65 4 -8.61868730382131 0.8713955619335629 -7.0368741148653555
1016 65 4 -5.848581828442507 3.735429344335131 -6.982310929791354
1029 65 4 -3.88412432685082 -1.6196124695317327 -5.222376046480907
413 53 8 -3.967948022883503 -2.804813100658598 -7.7605988932710765
414 53 8 -4.981543922195635 -1.8221267185496504 -7.652554420396775
415 53 8 -4.932493955020228 -1.5957530972496652 -6.293892248660963
416 53 8 -6.333974473725046 -0.3962297519086669 -6.669187994207902
1021 65 5 -8.557585736031072 2.4974202402853845 -6.975572659177791
418 33 8 -8.113108446697295 -2.391207473503175 -5.622300442326516
419 33 8 -8.72730149540264 -1.5127524403579284 -4.3462451440476535
420 33 8 -9.894686769302075 -1.8292853908909559 -3.731116477722593
421 33 8 -10.395354108749231 -2.7377385562218968 -4.427583737624209
422 33 8 -10.15211771086413 -2.808853361146614 -5.648081758523475
423 33 8 -10.30939204169217 -1.6642478967406849 -6.108110389210737
424 33 8 -11.368871017573083 -2.1787215307944847 -7.106783224806359
425 33 8 -10.806003359523311 -3.5207486354407043 -6.502516746688614
426 33 8 -10.435669750082335 -4.083615447668845 -7.659259816959321
427 33 8 -11.153535636756605 -4.962115358292752 -8.160085707545703
428 33 8 -12.205950483255059 -4.317057731765129 -8.074817626943469
429 33 7 -13.099582401844653 -4.939155444938034 -8.939318498138771
430 33 7 -13.839942074559238 -3.8986537221726314 -7.6977476128675635
431 33 7 -14.369059811919493 -5.198288289139725 -7.421816105951203
432 33 7 -12.267033145049082 -6.726511667987316 -6.963365752518301
433 33 7 -12.79588268957504 -6.498428582306519 -5.702212393319009
434 33 7 -13.352847754646938 -7.75957944754002 -6.680367893831717
435 33 7 -13.586979421880013 -7.565823087079829 -8.480679850792942
436 33 7 -14.858118489973915 -7.5604847190940045 -9.891945029709806
437 33 7 -15.13151605884317 -8.441432651836951 -8.659035155815728
438 33 7 -14.893041534527567 -8.979713432791687 -6.7796060600600905
439 33 7 -15.92941725638545 -7.373084233458348 -6.599717055935658
440 33 7 -14.96575683356676 -6.898341940540785 -5.207461379850826
441 33 7 -16.075534777182472 -7.445407453434441 -3.9751090090457093
442 10 8 -0.3126517659796842 14.88431433295476 0.1935074913598351
443 10 8 -1.4539375861363457 15.882620416519215 0.17574975274108715
444 10 8 -2.549023277717436 15.575058546604254 0.2542504532075606
445 10 8 -3.158781298301727 16.040827904517652 1.0146418420519687
446 10 8 -3.1375503689945514 14.705579014874658 -0.6721971147203308
447 10 8 -3.7480827283275855 13.884897681930854 -0.4506696822036211
448 10 8 -4.164101442722185 14.630420410889021 0.13869361912538922
449 10 8 -4.10754076109681 13.30859932660753 -1.3041414331566588
450 10 8 -2.8368125321977002 12.92354569696402 -2.152791089330343
451 10 8 -1.9188235785312882 13.643075054189184 -1.2507645728449253
452 10 8 -1.0891551426839905 12.054059713563989 -1.9714773651405137
453 10 8 -0.9342043968895865 11.096146484117325 -1.6517259074466657
454 10 8 -1.7464859756501996 10.433091432408366 -0.3269492222854098