# Generated from readdy-to-lammps

1005 atoms
718 bonds

10 atom types
1 bond types

-30.0 30.0 xlo xhi
-30.0 30.0 ylo yhi
-30.0 30.0 zlo zhi

Masses

1 1.0
2 1.0
3 1.0
4 1.0
5 1.0
6 1.0
7 1.0
8 1.0
9 1.0
10 1.0

Atoms

1 1 8 -15.488160402017758 -10.757387251095546 -12.624306894896495
2 1 8 -15.26862019085838 -8.691292105177403 -12.540298731162592
3 1 8 -14.878454212058879 -9.54740577576168 -13.186727939867193
4 1 8 -13.6343830371525 -9.409020800571202 -14.152141445433452
5 1 8 -12.661057605214452 -9.43097995869237 -14.82004682734774
6 1 8 -11.820674156055222 -7.928716042666904 -14.169193417831035
7 1 8 -11.854290565379028 -6.867354790473927 -13.720566448546343
8 1 8 -11.25633582030882 -5.91944080394172 -13.969399445927774
9 1 8 -12.321423993247581 -6.127317435995021 -12.477776838327362
10 1 8 -11.210083421595552 -4.547417081067746 -11.950743461347315
11 1 8 -11.038898603015236 -4.025873434330772 -10.909526702717981
12 1 8 -9.57354386270948 -4.736316022237076 -11.009049101956258
13 1 8 -8.88484913940248 -5.777833296619945 -12.55409450544863
14 1 8 -8.751269938923617 -4.881012495261646 -11.617989280544844
15 1 8 -6.764805404450315 -4.469359264044882 -12.148706422440593
16 1 8 -6.970565729790541 -5.17851479065815 -13.586817615746009
17 1 8 -7.0711137189490865 -5.364888455883176 -12.316408329172525
18 1 8 -7.290508974940917 -6.02552649488051 -10.942881542215282
19 1 8 -7.860696799248993 -6.961090212576484 -11.564955068639376
20 1 8 -8.449626306942728 -7.867317418561949 -9.689952404883192
21 1 8 -9.837591337305504 -8.896043820740118 -9.68640362426319
22 1 8 -8.857585669501718 -8.968918292288453 -8.575958759241486
23 1 8 -7.6610172349910295 -8.602026808586354 -7.951288749887003
24 1 8 -7.728866181112616 -9.624735318700248 -7.553675911455813
25 1 8 -6.614174573314408 -8.359442598414882 -7.575921840154059
26 1 8 -6.9947948288256026 -6.657502412357403 -7.679553915796252
27 1 8 -6.300186492292162 -7.674943219251582 -6.514967424511909
28 1 8 -5.344229525826263 -7.5394325940860325 -6.145359030163176
29 1 8 -4.505250716560251 -7.609015869722171 -7.646343225970783
30 1 8 -3.943228599979835 -7.442620791773551 -8.752503478169636
31 1 8 -3.877787294158626 -5.524799642199909 -9.780053720421574
32 1 8 -4.232896736772773 -6.124228817323063 -11.043169590233955
33 1 8 -2.521194261471663 -5.923458034062878 -9.647419198845016
34 1 8 -2.1042824586874924 -6.0305358939110185 -8.683778620138565
35 1 8 -0.5642752779921608 -6.329485945338089 -9.045692568540884
36 1 8 -0.19193103804426126 -7.3731931770732 -9.262110548516599
37 1 7 0.7455800239277115 -7.264519632171553 -10.674743402034844
38 1 7 -0.2240793037007332 -6.866698306316439 -11.285647805818774
39 1 7 -1.0900772114773767 -6.9917337895762275 -10.534345039347983
40 1 7 -2.6520414198240414 -6.977316011221108 -10.877339265445112
41 1 7 -3.5503357418740498 -6.598850282746244 -9.890460510450705
42 1 7 -3.733470680855405 -6.799998119026316 -11.475903019959567
43 1 7 -5.0749461302461 -6.701729611871565 -12.527227652031867
44 1 7 -4.526701463195567 -6.860246326332826 -13.351426270383017
45 1 7 -3.634061657540603 -5.683234657615626 -13.417328540205057
46 1 7 -1.9739855166680875 -4.949859892845744 -14.691731943919834
47 1 7 -0.951323426772855 -3.913328067195761 -14.511832772961885
48 1 7 -0.4885844656802247 -2.7911138584458115 -13.775472936985294
49 1 7 -1.9737861671784456 -1.6313566575052327 -13.728765509119143
50 2 8 0.622572667668513 -1.5616274989736392 -2.8987662123024918
51 2 8 0.5133007213759151 -1.4962860504273634 -1.5580668624145424
52 2 8 0.4517173969250142 -2.7069656582140134 -0.6339413026896372
53 2 8 1.5683316558713787 -3.1848038629622333 -0.33422905306292944
54 2 8 1.312518937825527 -4.686953184202641 -0.48227677994376483
55 2 8 0.4824841531969405 -5.329842221986036 -0.08125885245669752
56 2 8 1.1418887940464908 -5.636588434722961 1.4681796739964332
57 2 8 0.036076088372266245 -5.859539171562266 0.8448680765014452
58 2 8 0.5810179177510754 -5.492426259065627 2.24559066696221
59 2 8 -0.2473833792048728 -5.728196486462617 3.579742494193987
60 2 8 -0.5732390526686366 -4.656057696322059 4.771240369969246
61 2 8 -1.5817867278533158 -4.207907110410061 5.182185012443246
62 2 8 -1.1089783147974257 -3.217393728236075 5.138631020719641
1007 36 4 -2.5826562469166037 -5.141141133426322 4.497641566456483
64 27 8 -1.0671308938060757 -4.372499368019071 2.046287408548032
65 27 8 -1.2423829146551866 -5.419476105062712 1.7450951739467329
66 27 8 -1.7792804756287801 -4.5587549348097545 3.149817053180704
67 27 8 -3.2913228532682677 -4.774648088944064 2.779470378611333
68 27 8 -2.325707376119128 -3.6905394280657147 2.6521318709267354
69 27 8 -2.8835547965441957 -3.5396679738791508 3.743595417095281
70 27 8 -3.071696286575299 -2.9416109085409614 5.32787174791843
71 27 8 -2.1326406891218395 -1.3298347345025927 5.173292181326321
72 27 8 -1.3345019257547628 0.29391911138624865 4.727259458188071
1009 36 10 -2.0900033606223904 0.31801870936240517 3.5095493112535165
74 27 8 -1.5349535968330685 -0.7551836497364186 2.874933288262318
75 27 8 -2.9036359408988957 -0.9222444302904388 2.0689814289993045
76 27 8 -3.802244043876835 0.7426726475535724 1.8777103863503843
77 27 8 -4.380946953115393 1.7420672106976192 2.073514696295365
78 27 8 -5.347297033788834 2.384627392166718 2.0554974033176294
79 27 8 -4.541195268116632 0.6296872137150916 3.035243204004916
1017 36 10 -3.2437898909169247 0.748233030871387 3.957888566677875
81 27 8 -3.2040538126256966 1.7191543883014773 3.3806923016626413
82 27 8 -3.1639451814072674 2.6879610609698545 2.3296658755963406
83 27 8 -2.4473395212318696 3.691355520272188 2.9778789520890174
84 27 8 -1.5618618523261323 3.6055486083125756 2.4686890054699795
85 27 8 -1.4531567787049566 2.156089662800984 3.3568833926502952
86 27 7 -0.779795603487461 2.700680096948176 2.41492833541159
87 27 7 -0.9581981140565211 0.9404675197566931 2.3333447041482027
88 27 7 -0.36792707397338187 -0.48084106819649153 1.8923350643220234
89 27 7 0.0499150131011492 -1.9423455353952794 2.1746697649323257
90 27 7 0.6308770142092248 -1.391279959456689 1.1455097520435746
91 27 7 0.33509122621765347 0.2412666756279328 0.9238812672353951
92 27 7 1.6214802021758867 0.37842134138510963 0.16584899278667542
93 27 7 -0.3875150672225054 1.2091851367216198 0.5750035893478074
94 27 7 -1.0148696161832291 0.29480462644700145 0.38601569797482294
95 27 7 -0.48914957394573133 0.5278057836923519 -0.9887119193533466
96 27 7 -1.5133191742283052 -0.5128594214426223 -1.3688414704769976
97 27 7 -0.7692501729374398 -1.616337194280367 -1.0854529948876426
98 27 7 -1.358154604300226 -2.439421125792711 -0.5882142611243414
99 3 8 -0.389023740309819 -8.354047471278284 -0.6763428226937421
100 3 8 -1.24355057664798 -8.03976498765514 0.13053502005605705
101 3 8 -1.969864106708987 -8.094066840191017 1.80237295415896
102 3 8 -1.4131243285775057 -7.4968121128967855 1.0686907234436278
103 3 8 -2.7109295808167344 -7.250423532956506 2.0384535312974186
104 3 8 -2.5596419935440475 -6.090590386783514 1.9999765331545465
105 3 8 -3.1229539892319065 -6.962781043353824 0.09467845061901622
106 3 8 -3.027133014694696 -7.209391693491028 -1.6109242017587961
107 3 8 -2.8220365283814663 -8.143070104470397 -2.2690703164338677
108 3 8 -4.05759452706167 -8.148083224779638 -1.9765630918115102
109 3 8 -4.081809525999826 -9.908065401393912 -1.4760026820896623
110 3 8 -4.93318172305295 -8.830110071031756 -1.629242789707534
111 3 8 -5.2746163013166685 -9.66469396003259 -0.6124956656953052
112 3 8 -4.961869107775993 -10.70962434753305 0.23439626656876997
113 3 8 -5.692404239377634 -10.909408055908653 1.1275263288051265
1024 36 10 -5.5889778208431045 -12.136042382041982 0.030993841738313405
115 3 8 -4.448042737798174 -12.029878166335772 1.4707332621565943
116 3 8 -3.985537262493248 -10.653222862660948 1.260984617231829
117 3 8 -3.173528489022831 -9.359789508508866 1.321966821626718
118 3 8 -4.646103494858384 -8.210237636594938 0.6213606673461587
119 3 8 -5.263316978595271 -8.283276533640487 1.4185817035739863
120 3 8 -4.4113125189725855 -8.292439738058329 2.619488013835173
121 3 8 -3.8875980848560316 -6.7860370396060254 2.5544868126066422
122 3 8 -4.526538242875417 -7.439679428404612 4.836594861979822
123 3 8 -4.041974166859111 -8.51946311255727 5.287281323315971
124 3 8 -2.7602173116854463 -8.705636884176194 6.2559968283157525
125 3 8 -2.601962269374768 -7.679180094678062 4.596828110510569
126 3 8 -2.6514963816541233 -8.572522635779563 3.1729113633640225
127 3 8 -2.4054304310681114 -9.991890658372425 2.636245091776597
128 3 8 -3.453537152582106 -10.86210730084044 3.360905110124951
129 3 8 -3.621692984530675 -11.591647187366798 2.636527475115906
130 3 8 -4.855623118589436 -12.49132090108147 2.853319607242729
131 3 8 -5.855169968866163 -12.848742244959274 4.226474252034065
132 3 8 -7.091316448707168 -13.876584597583212 3.844086634132616
133 3 8 -7.053301871036711 -14.746524656672017 2.3600092451081296
134 3 8 -6.494600787558237 -15.1844986450974 1.0639785018984027
1025 36 9 -4.911799840442213 -14.716398990853403 1.4046432186042446
136 3 7 -4.926179913478759 -16.329271741080316 2.2884064173328937
137 3 7 -5.394635910940538 -16.564182599190428 0.7823060981119608
138 3 7 -6.534692444719916 -17.189854718207442 0.13109025347532233
139 3 7 -4.5719095953728015 -17.35041264572573 -1.5403190778349136
140 3 7 -4.536204571680837 -16.09265282883715 -0.9689152323405824
141 3 7 -2.991963886620893 -16.094455106985873 0.40107818994262723
142 3 7 -2.070127201333811 -15.422561605932346 0.47100247411081314
143 3 7 -3.3816234611587896 -15.402262837470603 2.2053430208421214
144 3 7 -2.6133326992749284 -14.24480743567257 3.644159583877803
145 3 7 -4.38838628691552 -14.187503736922267 3.547960934823915
146 3 7 -3.8819545898062127 -13.175344128947385 3.487425338680669
147 3 7 -3.9603372427304224 -12.198568197125732 4.368468797603554
148 4 8 -0.582684129348352 10.83474952764217 15.518215449817752
149 4 8 -1.2042807435180034 11.623734399617998 16.37429993347751
150 4 8 -0.7766947832813198 10.829978518549021 18.718967546941172
151 4 8 -1.766710603655015 10.574146070128483 18.269957759288335
152 4 8 -1.1130172897446478 9.883703094542133 17.718851782307333
153 4 8 -1.661684510939132 10.260435600407252 16.70618574703762
154 4 8 -2.439704797253022 11.027980083057649 17.68805001490534
155 4 8 -3.3088836606200287 10.040534185182002 18.389506356584725
156 4 8 -2.852940962412455 8.376912124833922 17.486355470035797
157 4 8 -3.707268541210871 7.550755348211035 17.08468455825598
158 4 8 -4.898162004486935 6.978218211535519 16.273513886282498
159 4 8 -3.321181178773841 6.517662532505645 17.310884065037836
160 4 8 -3.3502227126388835 6.6564492782090205 18.502368658275646
161 4 8 -2.1608688052385987 5.617100575804342 19.643557465112256
162 4 8 -2.532715729646333 6.659822827642939 20.780088119548893
163 4 8 -3.8750567876581226 5.72436772788778 21.894200453118835
164 4 8 -4.634386486919586 6.032424705906522 22.542709357025828
165 4 8 -5.071201660925363 6.715274411048375 21.14795934387441
166 4 8 -4.980132760853457 8.277697386388144 21.6464989083538
167 4 8 -4.817330381570635 7.898042287088111 22.816875467675427
168 4 8 -6.283512510529283 7.136923507141207 22.552095713914756
169 4 8 -5.490146871077102 7.035120566041956 23.680336820300198
170 4 8 -5.852663843043686 6.193898559597963 24.635196666561278
171 4 8 -5.594459954059271 4.878570337508767 25.755719229902827
172 4 8 -4.937037805076178 4.003174433350787 24.524399391018907
173 4 8 -3.970716102347215 3.8772639757790315 25.654345790226024
174 4 8 -4.094579419989463 2.481574107733849 25.35717071847078
175 4 8 -3.591053312208335 0.7900377367935214 24.860808100107683
176 4 8 -3.4819438496809325 -0.4697163183577476 24.90516824995833
177 4 8 -3.9225843341418556 -1.0044669711931649 25.63023597091618
178 4 8 -3.3595080827937043 -0.510908983865673 26.53158059475117
179 4 8 -3.855686818911669 0.4289065259196066 26.949705160323795
180 4 8 -4.651938170000323 0.2894309937360142 28.240469895766875
181 4 8 -3.893442971401489 -0.6487708186587192 27.472568887046968
182 4 8 -2.892730707937116 -0.4528686305016685 27.74885470534198
183 4 8 -1.2262963803996145 -1.1548548396397809 27.992873349687923
184 4 7 -0.1066390349952808 -0.42638393497676763 27.040068875584144
185 4 7 1.4575863735991674 -1.1791573427809925 27.259104043614695
1023 36 9 0.9039659203552198 -2.2374180327560502 26.965355475030172
187 4 7 -0.6435682557625263 -1.5180121153618351 26.51415045696146
188 4 7 -1.2906463726902473 -3.0129292337603455 25.55055011518133
189 4 7 -1.6919758163244627 -3.0839951258559366 24.39743513026916
190 4 7 -2.3746178540966913 -2.346153792861868 23.433178030807785
191 4 7 -1.2319026720865789 -2.863114279450629 22.195394484429375
192 4 7 -1.865892134595856 -4.251641810923062 21.847344298623565
193 4 7 -1.1847372885985545 -5.543381497235101 21.785747409513235
194 4 7 -0.9518461372031923 -4.617960863289919 22.891044289483144
195 4 7 -2.3459006073109547 -5.869157274077761 22.55834575901225
196 4 7 -0.9855456860816166 -6.377703425382531 22.841657164685557
197 5 8 1.0054663853420873 -4.445150599676257 13.614310599173603
198 5 8 -0.42541897187901867 -5.0305976995776645 13.698505513691819
199 5 8 -1.1860531390186946 -3.909674475791997 14.465994424665087
200 5 8 0.10245314221402753 -3.9708501197436217 13.902465851019537
201 5 8 1.8247393350338696 -4.410739316407562 14.236412384729508
202 5 8 1.9405316706493092 -5.2697151132447 15.363609718721682
203 5 8 2.8247714986956143 -4.3807565108150035 15.153439966044873
204 5 8 3.1463759677148393 -3.9460101487153674 16.34782878760019
205 5 8 2.753942918955009 -2.866825166372649 16.758385108374853
206 5 8 3.4195796846047424 -0.8643958660996005 16.817404672673565
207 5 8 3.9403184104565807 -1.4641006840213169 16.162444652893853
208 5 8 5.307770920395072 -1.8815194122375412 16.707667593594884
209 5 8 5.168286469144347 -2.5257494102767746 15.61494686505923
210 5 8 6.032574635093116 -3.3898348991922718 15.541100049327701
211 5 8 6.24385604588982 -2.333166655422636 15.226596370484792
212 5 8 7.283450325278658 -3.1235266719604833 14.611857330124558
213 5 8 6.86033423452836 -1.0316331499525582 13.793354234010335
214 5 8 5.892351474586931 -0.2123121258642619 12.888724043583792
215 5 8 7.038169296635098 0.4728695582762234 11.933506317707526
1019 36 10 7.735997771258765 1.3173029593412802 11.749545580924242
217 5 8 6.357312346743552 1.75393254285517 11.52312423617271
218 5 8 6.718522150915096 0.9001524418368598 9.938721518102156
219 5 8 7.777919854746578 1.9753286753215387 9.663708907717812
220 5 8 7.552431736790747 1.1651245555170953 8.60352171870484
221 5 8 7.7563034838066836 -0.7844471100456237 8.106439857601266
222 5 8 7.716446469818718 -0.9763346751277843 9.240833116668988
223 5 8 6.892844967506212 0.021087524054632035 8.705455029774372
224 5 8 6.863273782307294 -0.1746442449843238 7.069114063335673
225 5 8 7.736071180577838 0.6084169008078125 6.795796315239511
226 5 8 8.695467388857882 0.7661457410289546 5.0387632342171775
227 5 8 7.47749856713208 2.433853000376322 4.292042847842801
228 5 8 8.426122852098755 2.9243186673170376 3.3258344257256915
229 5 8 8.211646348380219 1.7254853232442044 4.13622313449473
230 5 8 9.58999529402905 1.5018865340245506 4.649990926307956
231 5 8 9.068289564852734 -0.3206628894078593 3.5144303329560667
232 5 8 7.790487547267177 -0.8416490375403979 2.9757866817244456
233 5 7 9.095536754007648 -1.183304112157702 2.8757812007295125
234 5 7 9.277033316035487 -2.805003008993365 2.0453727961968395
235 5 7 7.807658388348265 -3.252214478729039 0.7924131294792189
236 5 7 7.889312254903276 -4.9046316672990224 0.26127574525080094
237 5 7 8.484985333255462 -4.00133840708355 1.5061633918131103
238 5 7 7.193016964740829 -4.389754068525236 2.1240431602904803
239 5 7 5.899620676875029 -3.9691462168950293 0.9846812920779953
240 5 7 5.824731154584767 -4.165621241275507 2.1934339486586203
241 5 7 5.288321062620608 -2.5647034402526465 1.3482454316009467
242 5 7 6.0163593847869254 -3.0194043512484745 3.721567780520323
243 5 7 6.775078846342037 -3.2513318185773796 4.335297897387139
244 5 7 6.963952544279381 -2.0102276907708148 3.6032875540301106
245 5 7 5.687109820591309 -1.759941260250092 3.814375335168615
246 6 8 -1.2631365045491727 2.2715683951910406 4.641117361274496
247 6 8 -2.2671852353025423 3.2249672975026553 5.336342032464639
248 6 8 -2.91841486400429 3.9056823047414264 5.221800960767099
249 6 8 -3.2917069543086144 3.516247528292723 4.099423277205101
250 6 8 -2.538091378318693 4.818147242058186 2.9450992172753425
251 6 8 -1.460380831566918 4.2075010728511 4.123860017443251
252 6 8 -0.9119948870988158 3.044988128221093 3.644124580932439
253 6 8 -0.5397387371723641 4.724334791365575 4.488628958533675
254 6 8 -0.7067880224817175 3.6046399529680624 6.339621096481703
255 6 8 -2.556501551688057 3.264056335430895 6.842840298142621
256 6 8 -3.507255847214801 4.483578409263339 7.084854772125372
257 6 8 -2.98120559262567 5.656017807699281 6.999493734299752
258 6 8 -2.5944316810552586 5.653757245013891 8.275235730493637
259 6 8 -3.582388550179353 5.551145973421453 7.897328002378802
260 6 8 -5.361179635028898 5.346280496627912 9.28875087769936
261 6 8 -4.524217016160056 5.341559460924946 8.225267604143887
262 6 8 -3.541748875506434 5.118499251336381 9.078122890262364
263 6 8 -2.337820248920713 4.002079625437937 10.405029987203251
264 6 8 -3.3749745600080496 3.1892035013435587 9.577118683498428
265 6 8 -2.8599525993149846 2.191666504199168 9.075217079585542
266 6 8 -1.4690670283922576 1.5963177769254326 10.178127627345782
267 6 8 -2.4904346778650046 0.8564042576049514 10.470425128297457
268 6 8 -3.5848646784833065 0.3519499474355989 11.686044882129806
269 6 8 -3.0196865438833913 -0.1955577650564846 10.421669319672848
270 6 8 -2.680714108757045 -0.4248716676363823 12.034030578966062
271 6 8 -2.9664175706200187 -1.7263097820651503 11.99789800351072
272 6 8 -2.6535127674627237 -3.0771613750059035 12.400450989313898
273 6 8 -3.5105637616194545 -3.752166038767532 12.741553597766584
274 6 8 -4.175480223114461 -4.131020256272185 11.809790854048869
275 6 8 -3.211806522998398 -3.609181595588538 10.437115071713727
276 6 8 -4.653253724683023 -3.0241781692131435 9.565863269405934
277 6 8 -3.0037063264762205 -3.1037559515493065 8.94632744681474
1012 36 10 -3.652625899735368 -2.060377708806491 7.628253116621192
1026 36 10 -4.536269143117435 -1.1728816972751972 7.199527502458082
280 6 8 -5.446295310672303 -2.232004587691036 7.14777064790892
281 6 8 -5.626661031017498 -2.8144744699485975 8.042968247581623
282 6 7 -4.90261601457215 -3.3305000963634863 7.026489465023583
283 6 7 -3.908948758845319 -4.032222376779538 7.470924079660256
284 6 7 -5.431559316883297 -3.7759828987871886 6.143918992171469
285 6 7 -6.720342673475181 -3.037191141014669 6.198019109384039
286 6 7 -6.7147156074688334 -4.442826841983917 6.824092616747183
287 6 7 -6.08117030680255 -5.65182121845163 6.288618904780792
288 6 7 -6.373300783187194 -4.625748547006034 5.372201468390103
289 6 7 -7.414079785732037 -5.266690608141157 6.311190539220754
290 6 7 -9.525499089660205 -6.437234439368701 5.931640966883262
291 6 7 -8.464186187622158 -5.777290732880011 4.6787734197551565
292 6 7 -9.430363419077189 -5.023783501112496 5.204874782391811
293 6 7 -8.58210654434171 -4.228030885928961 5.114227424333093
294 6 7 -8.363575771832718 -3.686355765973301 4.197310977829354
295 7 8 3.3428628438490944 13.528235143558684 6.420076379748439
296 7 8 4.400339763394883 13.362695950117335 8.339661670194443
297 7 8 3.400945950257486 12.97712050531109 8.602470330689309
298 7 8 2.504864286036646 13.179309313014114 8.185225553050683
299 7 8 0.6842988694919456 12.394367062979097 7.765962096847849
300 7 8 1.0356168932306846 12.86218772889661 6.9072259178513535
301 7 8 1.093558590169536 13.87453950929648 8.549300625230332
302 7 8 2.1853523669637633 14.914832926718926 9.745088912581858
303 7 8 1.2312908309425783 14.439867678442468 11.489221355297945
304 7 8 -0.24090603251513865 14.528116407077766 10.943487318880278
305 7 8 0.511558723895729 13.040962792358538 11.764287971218424
306 7 8 0.49553221206965653 12.131476864797245 11.168093039375078
307 7 8 1.500574240123315 11.289033179426205 11.53023944499363
308 7 8 2.951162258163554 10.768563246197179 11.103797989674884
309 7 8 3.5850343352606866 9.602204649333206 11.320948912612295
310 7 8 4.1196026843970435 9.589384678135701 9.376561701773683
311 7 8 4.936592911743495 9.954928818116791 7.90957134456518
1011 36 10 4.722284838579712 8.805644843429668 8.358989379674519
313 7 8 4.012127685911823 8.037547391098046 8.96687952825441
314 7 8 4.079572934194136 7.112855722055582 8.030563484417735
315 7 8 2.9376629022063594 7.510276203021625 9.305503951174133
316 7 8 2.9801802041005176 6.86445788298258 10.223655284519989
317 7 8 2.8569278962962534 5.474061612044908 9.005042125330899
318 7 8 3.0162049066534227 3.5751613985109056 7.745210962198134
319 7 8 1.6500178403626462 3.377427179438267 6.190134717634535
320 7 8 1.8982186651607493 2.435012588674941 5.456188501274765
321 7 8 2.5571141002527558 1.5133284927089077 5.735904543861505
322 7 8 0.9861280249836625 1.5634164035001892 6.344860325139977
323 7 8 0.03734923662123383 2.3637467089366906 6.655217311058757
324 7 8 0.6445727680618646 2.912182551444796 5.964937495089349
325 7 8 0.3842012540207391 3.093664127061065 7.784911817096735
326 7 8 0.9224676799028143 4.124173061291481 8.775977609038176
327 7 8 0.6830775910648973 5.443514400121231 9.470023291281121
328 7 8 -0.0966875973450547 4.490318864552286 9.41963191091369
329 7 8 -0.6376803659911642 2.966663863802462 8.869903744108584
330 7 8 0.4354851407105544 3.1038989563378467 10.017800579246979
331 7 7 0.26105917888080715 2.056027969751252 10.649804594393515
332 7 7 -0.18976098066138156 0.9069584431508164 9.739451850001108
333 7 7 -0.9065960825291317 0.24719934297668872 10.550338569624103
334 7 7 0.290781542994054 1.510574942371799 12.078060736232503
335 7 7 -0.17653045981163498 1.7395772192076273 13.305712388205372
336 7 7 1.749159157580057 2.080783142333527 13.221882436700545
337 7 7 1.7026319644920287 3.5686439540456325 12.632881605510152
338 7 7 1.6636237376683123 4.658163922122249 12.572420841811331
339 7 7 0.2147738732865968 5.279442931433133 13.260382025696892
340 7 7 0.47279785542477437 3.9965765282483647 14.675041389946852
341 7 7 1.6459195698612468 4.811095472689351 16.114636663056423
342 7 7 1.7941648633144474 6.137165214265875 16.572636805875835
343 7 7 2.8175447085748853 5.28824469204085 17.714538647286997
344 8 8 6.823191114624155 18.445989837696313 -9.510335422160045
345 8 8 5.8590736189524755 18.720520614792353 -8.50396310393603
346 8 8 5.820387977989084 17.071632362231107 -7.334308698057214
347 8 8 5.6189348972786295 16.38126483521808 -8.670621463764508
348 8 8 6.28511470855447 17.76546874951633 -8.839688738266103
349 8 8 7.1368167067945825 17.343967374625556 -9.62914478460008
350 8 8 7.812833374065182 15.675940179902407 -8.382749925861143
351 8 8 6.914450550236417 16.10956387250325 -9.406902934690812
352 8 8 6.1762166062900015 17.499707909289974 -10.420599280274578
353 8 8 6.059952763156853 15.95370692911393 -11.619883427117554
354 8 8 6.879427737986569 15.016525751305869 -11.327478786944777
355 8 8 7.446092946467966 13.733612985565797 -10.979568344976204
356 8 8 7.110994905177505 14.422935305707659 -13.068176683281942
357 8 8 7.678239832842903 14.207539218023232 -12.241303984991081
358 8 8 8.248357390663976 12.645089992869014 -11.737317787810682
359 8 8 9.03724962366768 11.726445169391662 -10.939271436173813
360 8 8 10.755373829355303 11.471118640886665 -11.857368942560225
361 8 8 10.70418611822881 9.342150386370788 -12.13270980728634
362 8 8 12.036670124507308 8.992964443190608 -11.587888392457511
363 8 8 11.245867359026008 8.571234932730173 -12.841108705241574
364 8 8 11.710155993600017 7.541794275583893 -13.358049058679004
365 8 8 10.592239208821876 5.95266431393641 -12.825486097729751
366 8 8 10.476415901196056 4.89957483680384 -13.199535607483996
367 8 8 8.555069239022465 3.7140528139095323 -13.436250237616065
368 8 8 8.346207863964088 3.4289335871174416 -14.807079896158859
369 8 8 7.759304605522305 5.074010718953401 -13.766405536556553
370 8 8 8.24890875990613 5.12607039648393 -15.7016674764949
371 8 8 9.499161369440108 5.977770149372382 -16.78711851089068
372 8 8 10.431750209971428 4.931517611629766 -16.56991595003678
373 8 8 11.421367014190533 4.9669279080365145 -16.232503002063368
374 8 8 11.906433560069916 3.561771017967593 -16.692754303794636
375 8 8 12.524106266319826 1.977229320399444 -17.25458780302132
376 8 8 12.538014793160226 3.4435742043768918 -18.272223745356253
377 8 8 12.085211409973066 4.423753683478566 -19.95377772307062
378 8 8 11.7520353965585 3.22346508664798 -19.712117761891825
379 8 8 13.034955880305388 2.2311306584507986 -19.21684282185352
380 8 7 14.298052127817929 1.049904368392217 -18.55692767356879
381 8 7 13.126605540863812 0.3118055488485739 -17.853849143065638
382 8 7 12.611866180817357 -0.4505525752252961 -18.42969687184816
383 8 7 13.850924086974185 -0.41952838646363516 -19.630087229892332
384 8 7 14.029396447257938 -1.526706666751446 -20.28667643833515
385 8 7 14.577005021072603 -1.2220393168111578 -21.47076004393079
386 8 7 14.372788717156569 -0.5773183125428396 -23.49562048542181
387 8 7 15.014481498524132 0.39553724859292716 -22.417743238527294
388 8 7 15.440670586111349 -0.7265934708883602 -20.936444775051033
389 8 7 16.745614859732896 -1.7066374118790755 -21.888537784164722
390 8 7 17.103157316474796 -0.5586363798240359 -21.558515339150823
391 8 7 16.792649836490046 0.8867279163764707 -20.51900235769929
392 8 7 16.5426238310806 1.0988518886554852 -19.16561643355321
393 9 8 -4.369557753921641 -4.1696045774714845 -15.849950529598162
394 9 8 -5.401271239804092 -5.238150090989409 -14.431735630984127
395 9 8 -6.919843524384177 -4.178626560160424 -14.266013004018157
396 9 8 -5.6730828643351465 -3.9117092838230376 -14.602600024228629
397 9 8 -6.625025974249997 -2.727110279958378 -14.15882651321506
398 9 8 -8.259036655886563 -2.942310813821786 -14.266801068783248
399 9 8 -8.26272933496713 -2.282985281207569 -12.612915617478395
400 9 8 -7.513195667939633 -1.9196569046601872 -13.54091191454058
401 9 8 -6.687309017346925 -1.7028721833649407 -12.800875107479392
402 9 8 -6.852498938351604 -0.43546971680132845 -13.412763935936603
403 9 8 -5.2210813466288695 -0.7805048107999178 -13.160793295642934
404 9 8 -5.5740688353556145 0.3146488515782901 -11.864914916977007
405 9 8 -5.5303033518870715 1.8254503546592464 -11.36170600448597
406 9 8 -6.585554257940942 0.6085785519047117 -11.133301410854965
407 9 8 -6.936258008666611 2.0177414685241253 -10.698252589236343
408 9 8 -6.900995340235308 1.8502239033457966 -9.407123451786346
1010 36 8 -5.766202765542212 1.6623869180051796 -9.299809577250164
1022 36 10 -5.7522993859394544 0.7363590352438955 -7.822327782360062
1016 36 8 -4.595229271332064 1.0273887121435317 -8.067846174929821
412 31 8 -5.186163373406671 -0.22444904878291277 -7.612745802734738
413 31 8 -3.921723126642949 -0.6841338382345211 -7.9780719209844335
414 31 8 -5.473374767939067 -1.7012722153668702 -7.952853097052833
415 31 8 -6.712990775854877 -1.0577675723679754 -7.831406279443837
416 31 8 -6.977140328900551 -0.6692647785269592 -6.659413837684783
1021 36 8 -6.680315354955256 1.2484214133848561 -6.269082091049338
418 33 8 -7.091199244341171 0.3262050972822601 -6.90798223058738
419 33 8 -8.732059948552362 -0.2362406890526062 -6.1195575830873885
420 33 8 -9.664969180878115 -1.4278135910575618 -5.9569709857196536
421 33 8 -10.69229008821726 -1.186581776467507 -5.231372046925631
422 33 8 -12.207648289395552 -1.6544725983127415 -5.379512492783367
423 33 8 -10.857070826838543 -2.608541019933471 -5.094895170697739
424 33 8 -11.157522079195212 -3.707156579299985 -6.250991170097559
425 33 8 -11.590806551987432 -4.27210273620293 -8.090610561787383
426 33 8 -11.0395327010706 -4.865882386928875 -6.908046493160302
427 33 8 -12.081788373210895 -6.595381690981095 -7.855579168215074
428 33 8 -12.507245296507605 -5.118078344146028 -7.428939794383253
429 33 7 -12.565116539835133 -5.199431891761729 -8.422276791528194
430 33 7 -12.92389591505588 -4.159435269892327 -8.90968088220419
431 33 7 -14.182264875891752 -4.836554305503792 -7.476579735500062
432 33 7 -14.700801493234215 -5.042424728716302 -5.379607849416568
433 33 7 -14.193869759150484 -6.394895363698311 -5.361891243944159
434 33 7 -14.714495752632207 -7.563795890698586 -5.900307472681805
435 33 7 -13.66145817942969 -8.148242453349388 -5.8935810736638565
436 33 7 -14.596599311096844 -7.12025433937977 -7.564791947903829
437 33 7 -14.570381033557842 -8.239000310599389 -8.118747520885536
438 33 7 -15.839571593718732 -7.56694874018019 -8.254176040936265
439 33 7 -17.14379491880549 -7.946343880821937 -7.010139686805347
440 33 7 -16.265745668982703 -8.280919497466545 -6.182542754825657
441 33 7 -16.080928417227007 -7.175184773638871 -6.050948910411841
442 10 8 0.0878633555556196 15.318056964434861 -0.8939802149940924
443 10 8 -0.776793382787546 16.182460690058296 -0.6830276251058806
444 10 8 0.12170819115081397 16.66242314719418 -1.07118448301392
445 10 8 -1.9148336516555298 16.74635497683496 -0.5116027900250258
446 10 8 -2.0138289469256723 14.939043320685277 -0.34025969411357976
447 10 8 -2.3435948832723037 14.072368667818292 -1.4533737075227708
448 10 8 -4.100520839858967 15.051658362511857 -0.8424824831085806
449 10 8 -3.099015184758143 13.912323011139309 -0.23264124058551877
450 10 8 -2.6943934417530175 12.030069052548013 -1.2087989076971433
451 10 8 -2.061798574805626 12.771686099087276 -2.2305440691200418
452 10 8 -2.276678722549328 12.059317729194388 -3.8232241603729267
453 10 8 -2.9955201514796386 10.241615007625484 -2.6578314032576715
454 10 8 -3.7488413398451166 10.161914223063466 -1.4568477791162902
455 10 8 -2.9137625379997 10.226160786177434 -0.7487227629470558
1015 36 10 -1.5711153722515991 9.111520500821134 -0.7469323014346546
457 10 8 -2.005709410865425 9.408848978839965 -2.227436139783955