# Generated from readdy-to-lammps

1005 atoms
726 bonds

10 atom types
1 bond types

-30.0 30.0 xlo xhi
-30.0 30.0 ylo yhi
-30.0 30.0 zlo zhi

Masses

1 1.0
2 1.0
3 1.0
4 1.0
5 1.0
6 1.0
7 1.0
8 1.0
9 1.0
10 1.0

Atoms

1 1 8 -15.982143658518613 -9.43442463599783 -11.70571146963951
2 1 8 -15.765070570260013 -9.18206728289313 -12.748947013103242
3 1 8 -15.12637464231759 -9.679205601521833 -14.144018195886703
4 1 8 -14.003719365065853 -9.262460963103013 -14.377165194742012
5 1 8 -13.256998166773224 -8.959549703144695 -15.381146206083931
6 1 8 -13.30360681831551 -7.6428631929683615 -13.85200473514554
7 1 8 -12.53341554028703 -6.661392448059404 -14.108236390697606
8 1 8 -11.727467252029285 -5.946831263940469 -13.877391834020074
9 1 8 -12.11497023529365 -5.933605548039875 -12.405607418357759
10 1 8 -11.521663533194594 -5.07938614866056 -11.736487754225392
11 1 8 -11.208102212981334 -3.795208090056136 -10.932450877543841
12 1 8 -9.887876485172375 -4.500552043449102 -11.206520981398949
13 1 8 -8.93490750118329 -5.364036542323897 -12.143958863989955
14 1 8 -7.868467508328497 -5.180004130077037 -11.590697706792367
15 1 8 -7.007373314960231 -4.597927402049055 -12.369464539225735
16 1 8 -7.299557142334789 -5.272934913367247 -13.721327736426995
17 1 8 -6.863594142007037 -5.7568814063420755 -12.174962479366288
18 1 8 -7.285421035522321 -6.7721351879742215 -11.851199254424705
19 1 8 -7.447751427360684 -7.505061603163243 -10.808144175040509
20 1 8 -8.358566488382795 -7.534327031805269 -9.91850115382202
21 1 8 -9.340457121270989 -9.311221130435017 -9.452156506867137
22 1 8 -8.537273333887255 -8.627565751031188 -9.27647448025024
23 1 8 -7.490238119674685 -8.614609399084102 -8.473892921593764
24 1 8 -7.741612477215186 -9.460101078870954 -7.288519050121211
25 1 8 -7.146131031825633 -8.201856597652196 -7.636530244288806
26 1 8 -6.952939852043929 -6.796153655450223 -6.682337433385034
27 1 8 -6.043800735080306 -7.494359961997369 -6.96612376911538
28 1 8 -4.997206833569039 -6.882502706241953 -6.9086024307715945
29 1 8 -4.804314370231751 -7.708200521878651 -8.019101685311014
30 1 8 -4.103952210118683 -7.662080079481651 -9.830634124841119
31 1 8 -3.6667906668894754 -6.494813501373853 -9.154506807833068
32 1 8 -3.913653209797707 -6.725817875864228 -10.681962711720425
33 1 8 -2.607843275295275 -5.952469942633564 -9.543179895987123
34 1 8 -1.8206079078873352 -6.209257594692077 -8.726126171376468
35 1 8 -0.11490215273718163 -5.731039976346865 -8.839048727996316
36 1 8 -0.18512903444297305 -6.555244505559987 -9.575537607031071
37 1 7 0.24552714215496624 -6.933385915404373 -10.74841160994841
38 1 7 -1.1313344984978104 -6.886262859949822 -11.781555905557799
39 1 7 -1.2468049924188238 -7.174786841921848 -10.469149630334579
40 1 7 -2.3843512158023987 -8.04716886327052 -11.843610453986367
41 1 7 -2.5379814297878274 -6.800877925253738 -10.192595069489368
42 1 7 -3.912510032741077 -5.465420128614938 -11.29318773983494
43 1 7 -4.743621415960515 -6.358899814066883 -12.048426384491039
44 1 7 -4.07620192311945 -6.407326228336511 -13.159859912720737
45 1 7 -2.9405369406347606 -5.587260285263941 -13.221927807996746
46 1 7 -2.816710739167622 -4.916622073838825 -14.032683782416997
47 1 7 -1.8625782137972968 -4.214358740123388 -14.698387623066072
48 1 7 -1.012279900188833 -2.7789997107523554 -13.758898212711236
49 1 7 -1.6621299937242404 -1.4502277110290258 -14.164318194098467
50 2 8 1.5192934311643096 -1.5259452884630855 -2.6388539409569867
51 2 8 0.5802220470530536 -1.4487094643450873 -1.7001673086476696
52 2 8 0.8370169533578548 -2.2834923664095927 -1.0391101569921255
53 2 8 0.3677909437567994 -2.820205678669904 0.04314544359068502
54 2 8 1.3124232880027173 -4.59932755727871 -0.13858600654011502
55 2 8 -0.07003347965530775 -4.993256004330049 -0.0029570281504647257
56 2 8 1.188824556633639 -6.241424495964319 -0.11265894141883676
57 2 8 -0.2026023282432364 -5.998245687131981 1.1653577692513668
58 2 8 0.17351982214507677 -5.2845884212716845 2.024877525343728
59 2 8 -0.3282480239594425 -5.451304909151308 3.228447129934579
60 2 8 -0.1623008791117009 -4.430814254181502 4.2187487568332145
61 2 8 -0.9247530683411012 -3.579197288869582 4.852940988658456
62 2 8 -1.6145821456895573 -2.5634167575270377 4.90920548217471
1007 28 4 -2.5478448363689123 -3.432687614243546 4.634087985707861
64 26 8 -1.8532088767533361 -4.232828721602404 1.9728998328962084
65 26 8 -0.848910086266748 -4.379833170432779 2.3654240590095443
66 26 8 -2.0433642882375187 -5.379342798381844 3.345438020747684
67 26 8 -3.107565987829777 -4.8231245091264086 2.322398636661383
68 26 8 -3.5281519241276347 -3.6932525571060357 2.440206696124033
69 26 8 -3.31639028067286 -3.2689946381967125 4.010488699706127
70 26 8 -3.112763312242758 -2.626294923684668 5.363121871197964
71 26 8 -2.501959666888247 -1.7616300657181903 4.798182213091442
72 26 8 -1.9019267702163631 -0.4626703097602911 4.902348043693544
1009 28 10 -2.076571937258394 -0.19695149571883933 3.8553570386740263
74 26 8 -1.158265206802973 -0.14303617526397247 2.6129087133545528
75 26 8 -3.2064895780844034 -0.9948055345695573 1.8509435180641147
76 26 8 -2.7030149315548466 0.3806721305781564 2.275348243799408
77 26 8 -4.240441715257732 1.3066103497139807 2.1089423372811296
78 26 8 -5.690767740592092 2.098532940445945 2.8285900626909237
79 26 8 -5.607676264001639 0.22971095174469136 2.9398878594976376
1017 28 10 -4.355082124313319 0.29767072748256845 3.8019628261172023
81 26 8 -3.3765481555341563 2.214335491439787 3.7797769645297548
82 26 8 -3.10913911052817 1.978928410591421 2.0650547468242286
83 26 8 -2.9496057559196696 3.1745937491564096 2.194094121021028
84 26 8 -1.72409387802619 2.022504902829341 1.4323718978951305
85 26 8 -2.484654173231425 2.5379321882437185 2.924053236099064
86 26 7 -0.6612368040647867 2.245993239332308 2.620175829560695
87 26 7 -0.7329103786330134 1.0502369025265954 2.9111417617499877
88 26 7 -0.3203416105181087 -0.6438442532895615 1.9819679365202185
89 26 7 0.54434560229054 -1.7808429191798272 1.934471411926065
90 26 7 1.6724892707180508 -0.8659126150025257 1.2383644191752041
91 26 7 0.9210469665448168 -0.1756327743970326 0.7721271442591697
92 26 7 1.1215484800169704 0.6242089971439618 0.12899723081351866
93 26 7 -0.8239792092517128 0.8902711347286623 0.7498284013053238
94 26 7 -1.820282240377193 -0.8547373026030965 0.6491653675604169
95 26 7 -0.8438438878511513 0.5965267620784325 -0.4705252738953923
96 26 7 -1.671154409355928 -1.3512668141803634 -1.3417124685351747
97 26 7 -0.4490029678977255 -1.8312228866035096 -0.5499005040820346
98 26 7 -1.8102297472255298 -2.5208399379845026 -0.30278515902450565
99 3 8 -1.0461338857915479 -7.074741748755953 -0.44945340531714834
100 3 8 -1.9905768998271167 -8.054074956995594 0.5052162935180792
101 3 8 -1.8954336744336182 -8.182685462257732 1.7920090844063679
102 3 8 -2.2971488737287937 -6.399253470910859 0.7883482101511086
103 3 8 -3.0121920252802203 -7.496264129187482 1.5446928211362396
104 3 8 -3.2953290522837793 -6.411325111244551 1.8751489506452101
105 3 8 -4.222526282800451 -6.6386535364605646 0.07455276486706616
106 3 8 -3.3115202679180844 -6.8285841506956775 -1.8543193609978037
107 3 8 -3.160697661545066 -7.412676604882462 -3.2315273109193443
108 3 8 -3.5182134257818327 -8.240999752191579 -1.951031575557478
109 3 8 -4.215873397942548 -9.75359220446938 -1.3187023001531673
110 3 8 -4.587854045452193 -8.782483515783298 -2.2788184102055116
111 3 8 -4.840062642562046 -9.527463621877729 -0.4351276518693305
112 3 8 -5.311447299637226 -11.418135755552296 0.041820848355322834
113 3 8 -5.75641171887674 -11.524030089871083 1.077615876289877
114 3 8 -4.273726278294076 -12.070081262784969 0.05502196554644988
115 3 8 -4.32297496663276 -11.363999703447307 1.010027067301443
116 3 8 -3.758375446564876 -9.925647518595877 0.6889769379569876
117 3 8 -3.8840564382402256 -9.202631692407802 1.6769220377334824
118 3 8 -4.48501615452506 -8.538083626994252 0.6108301384840278
119 3 8 -4.926572885848347 -8.904448115721543 1.528269914846318
120 3 8 -4.215739728130985 -8.05207465347342 2.0887085899020064
121 3 8 -4.4747345246650205 -7.243778733974923 3.055690674986664
122 3 8 -4.402449316267405 -7.197201428587318 4.654294647028768
123 3 8 -4.32284140433119 -8.697582256877965 5.259504565568309
124 3 8 -2.5070766593682516 -8.72060851695598 5.307296178271388
125 3 8 -1.9715373064823907 -8.038207880475559 4.251963168859943
126 3 8 -1.926247217352824 -9.140000300975107 3.2066683693180806
127 3 8 -2.678930660023518 -10.39084108682729 3.291917664956909
128 3 8 -3.2295407724498224 -10.572328540981951 4.355197284647259
129 3 8 -3.609224555171685 -11.433883770250072 3.20469218927512
130 3 8 -4.965607927224446 -12.086126148527521 3.200659926763694
131 3 8 -5.629039921954295 -12.79069017532709 3.5763359309738334
132 3 8 -6.663941074889806 -13.491841961870874 2.637061728189385
133 3 8 -6.86865957154007 -15.245095169854253 2.978062276318612
134 3 8 -5.805844495967902 -14.52350666054966 1.3515228253710043
135 3 7 -4.3508858657000316 -13.856763606741461 1.2239397620748944
136 3 7 -4.5547896177217675 -15.46203683522688 1.9205693962335677
137 3 7 -4.967284564853538 -16.668764658095732 0.9491125751236946
138 3 7 -5.875109117188922 -17.727724870323005 0.1207044323481726
139 3 7 -4.580964329834301 -16.959017545680215 -1.2665502787352112
140 3 7 -3.6821124270299785 -15.74337135151969 -1.3690844432166385
141 3 7 -3.2006010965718543 -16.193694071830947 0.1860646691674382
142 3 7 -2.6839226607814557 -14.806706655866147 0.27644721077163786
143 3 7 -3.535166503430919 -15.397117890399302 2.1581419171656866
144 3 7 -3.232197784351987 -14.053075555509434 2.4103864162715873
145 3 7 -4.431902603461668 -13.732899230458864 3.4369434673833004
146 3 7 -3.6611413422250716 -12.893347887195272 3.8306123178835754
147 3 7 -4.447932298869733 -11.60892368677904 4.770180678873306
148 4 8 0.5871362907534065 11.086459436747218 15.553331254732317
149 4 8 -0.3318998863061569 12.269535234503442 17.382505124498767
150 4 8 -0.7281314702837578 11.454379698586333 18.3710823154788
151 4 8 -1.25755412326037 10.487270712718468 18.208120413480234
152 4 8 -1.2938934138278144 9.254100918570838 17.93850667214711
153 4 8 -2.292680237300953 10.029473712960586 16.475446370956686
154 4 8 -1.8645698822983743 10.980272682104477 17.21660346590444
155 4 8 -2.415372853888795 9.784485784600776 17.3904951914976
156 4 8 -2.9489911231251873 8.540892989616331 16.501854388477796
157 4 8 -3.199508013125886 7.780349639341649 17.45710759806929
158 4 8 -3.7202150797651288 7.0489761795434855 15.817218753506406
159 4 8 -2.718448565571192 6.781600308480339 17.040888405821843
160 4 8 -2.3850105900556184 7.161144978448538 18.731569526172052
161 4 8 -2.4446591273044005 6.32288958829551 19.884345136442082
162 4 8 -1.7296438951063715 6.954812235674225 20.85369630526215
163 4 8 -3.4331154136079296 6.750612485854015 21.31871144087577
164 4 8 -4.093637273136074 6.254949348436349 22.766970644401752
165 4 8 -5.092458539038869 6.3563290449872145 21.398110040531705
166 4 8 -5.861903363553572 7.777117940884519 21.37590272460318
167 4 8 -4.356957911400949 8.30504297460085 22.86426427730585
168 4 8 -5.755917186456483 6.982920922186122 22.538846884533303
169 4 8 -5.014325947239696 7.390814780006759 23.2929005784552
170 4 8 -4.982141037329139 6.413468600285747 24.920877410626918
171 4 8 -5.867950515281936 4.866250046514144 25.59487299760867
172 4 8 -5.0579349506920614 4.412722595712126 24.61988320443972
173 4 8 -4.12011192964212 4.147958786916794 24.190269439242268
174 4 8 -4.262629647264385 2.7580731288595346 24.92297667624489
175 4 8 -4.050257708462374 1.3275545725203104 25.532639174064006
176 4 8 -4.610973727905756 -0.3381525185918164 24.46161921763668
177 4 8 -4.544941657493938 -0.8986363487792538 25.87939721371191
178 4 8 -3.383953530070224 -0.6549522726190143 26.246314433495463
179 4 8 -4.113115765560599 0.20295875798085408 27.330710722569773
180 4 8 -5.231857596017141 -0.03229418711715482 28.131855464542383
181 4 8 -4.389391716256984 -0.853563453592138 27.789088249997263
182 4 8 -2.877433242319725 -0.889111903261767 27.679962345274205
183 4 8 -0.913511445610111 -0.08129100183786847 27.24922029606943
184 4 7 0.2124403782860236 -0.5906464777748301 26.908091476540314
185 4 7 1.6860265058930897 -0.599430557197423 26.635404149421426
186 4 7 0.8620593879591716 -1.490536229211671 26.77022255118054
187 4 7 -0.023518643963884388 -1.5556522669323216 25.99836004341484
188 4 7 -1.1518369428568755 -2.0024725391425364 26.210756636886465
189 4 7 -1.4935080490304615 -2.9421476931471724 25.870892508932805
190 4 7 -1.4207382725861712 -2.4412972299565046 23.6729525675275
191 4 7 -1.3705152162377456 -3.3510967268370586 22.408393845502864
192 4 7 -2.2281788139279177 -3.8623951807569354 21.987517273812255
193 4 7 -0.99533729936816 -5.422585513646403 22.163972634186372
194 4 7 -1.9157472577449264 -4.8654420404167125 22.96772472500439
195 4 7 -2.366957943571304 -6.40870703514975 22.635911525147765
196 4 7 -1.540695234366457 -7.07407091779482 22.766614632380914
197 5 8 -0.15523771095934022 -4.9662695309866205 13.85457798932001
198 5 8 -0.5922530132157638 -5.710519488061519 13.237113318922907
199 5 8 -1.0283502190308411 -4.154250249849857 13.581307152767488
200 5 8 0.25093071938764144 -3.851044535328307 14.581642369490767
201 5 8 1.5390877741417153 -3.830682812837683 14.817340985097232
202 5 8 1.1433628809041505 -5.198617729759385 15.50893893442266
203 5 8 2.7041517225348684 -3.9708212774946348 15.676854185677751
204 5 8 3.8386175989127485 -4.397911785358105 16.39534582225513
205 5 8 3.0805285499918433 -3.2463981791365226 16.710168344268
206 5 8 2.8164656155402397 -0.9266737043002132 16.713441638207566
207 5 8 4.043349098729826 -1.551980306256375 16.488397437388777
208 5 8 5.089282745051963 -1.8396958533103707 15.592929507570478
209 5 8 4.744079150512432 -2.7234025153120447 15.196213331130979
210 5 8 5.950835906297428 -3.7272049883350205 15.434198834953792
211 5 8 6.065635388806549 -2.5049527855572715 14.950684303106568
212 5 8 7.16112124036108 -3.5649424124649225 14.217767306961496
213 5 8 6.294265336367803 -1.4110469646149362 13.336395462533732
214 5 8 6.6696638003642095 -0.10343146785584119 13.598161775087338
215 5 8 6.380056179055314 0.6591004424701693 11.568773949624086
1019 28 10 7.6213897350182345 0.8854864242275015 11.568888256553938
217 5 8 6.886294195211199 1.6893187207092173 12.738770106972506
218 5 8 6.639717041582397 1.2317473839488386 10.540733148879838
219 5 8 8.309078719359801 1.3525454279962699 9.681623028015808
220 5 8 7.559384779268254 1.4622192450665266 8.303033751099534
221 5 8 8.685971104303366 -0.1599818595687345 7.6955368060462765
222 5 8 7.823529992804076 -0.5775578824508204 8.760249895314569
223 5 8 6.8188892665116345 -0.4864571371538113 8.32831867113442
224 5 8 6.779263297175869 -0.736327591122027 6.789532934267714
225 5 8 7.449830344015023 0.42901861871262253 6.324890523413587
226 5 8 8.436374447739752 0.5855878516036058 5.119888499260166
227 5 8 7.524637944378576 1.8946341974302865 4.115264904087046
228 5 8 8.523891116077685 2.7871426803738326 3.7249314248424286
229 5 8 8.39361170585834 1.200440196398915 3.7911626281836943
230 5 8 9.27049791467463 1.1889750704899456 4.822669102560963
231 5 8 8.519136231864671 -0.9723774172381053 4.358197878456659
232 5 8 7.363850929901887 -1.1109966868088257 2.201557948629851
233 5 7 9.266093656073982 -1.2825011610335968 2.6751132077104836
234 5 7 9.446919969136998 -2.8663296159188643 2.073032808131492
235 5 7 7.996342450152387 -3.162573527073451 1.4612984328387992
236 5 7 8.706080166922995 -5.104397239353528 0.8663989614121429
237 5 7 8.772738038300105 -3.8410583326408068 1.8595291336129178
238 5 7 7.5645102740420525 -4.340032974824153 2.2795541232264394
239 5 7 6.479573541722215 -4.626087005155936 1.5457969187764962
240 5 7 6.152583031210209 -3.4743392797024977 1.7099983653261877
241 5 7 5.679579575460787 -2.2701247332579397 2.2248707206692813
242 5 7 5.626199768457488 -3.4998384409354686 3.3058466390995984
243 5 7 6.666729926689181 -3.0674451136974015 4.411251302707095
244 5 7 7.468952343787555 -2.03654592247079 3.5592052381700396
245 5 7 6.248045240211298 -2.435009933350686 3.7716443565208326
246 6 8 -0.9943148381841126 2.126060039195014 4.487367089435449
247 6 8 -1.743827845674439 3.511027409924778 4.8421606513301825
248 6 8 -3.606120765634963 2.855611249013126 4.578743510081124
249 6 8 -3.6109182239741657 3.460626242513805 3.3047962509498525
250 6 8 -2.456239627519851 5.314182789949059 3.153451228545074
251 6 8 -1.8718593867249396 4.600640636426217 3.90034859370934
252 6 8 -0.9308640654200573 3.7951903637599407 3.751009727534252
253 6 8 0.17176606040639794 4.2629097661949125 4.8368924562429125
254 6 8 -0.3703412885852986 4.048903748875647 6.5414178647221695
255 6 8 -1.808804188412044 3.240444092949554 7.097682084880755
256 6 8 -2.680376459630097 4.58547725174521 6.756551519475456
257 6 8 -2.9675296536192093 6.030157913737184 6.768704489801676
258 6 8 -3.1675273603502774 5.9923306592328025 7.809492632455556
259 6 8 -4.29166214093965 5.739308626860836 7.590440737515147
260 6 8 -4.913473918320092 5.842148285983333 8.790883050885093
261 6 8 -3.9008934589504562 5.558608030621639 8.497116038266435
262 6 8 -3.379024234583967 5.1065820573287946 9.779386706462013
263 6 8 -2.227290132913018 3.9818031547510646 10.361987684576231
264 6 8 -2.834148347375418 3.268605936503052 9.377503992488004
265 6 8 -2.281259326297352 1.6516648720914517 9.740110201592834
266 6 8 -1.4652053165280714 1.4913676745542046 10.356517736547751
267 6 8 -2.743239627061098 1.1860147214554058 11.194092638634881
268 6 8 -3.5562625366255696 0.4994632421710285 11.660371448088743
269 6 8 -3.0113855388120943 -0.2811352966485259 10.757821224355958
270 6 8 -2.8221803812880526 -0.2766299719759637 12.344018401122609
271 6 8 -3.50774038813695 -0.9182608247688844 13.448487195231625
272 6 8 -3.7263202078697066 -2.909146752140571 12.584151175733382
273 6 8 -4.209397489205225 -3.3431776731057425 13.593068755838368
274 6 8 -3.6547975186830954 -3.7600424199433555 11.927995745711957
275 6 8 -2.8321936980393154 -3.264488396063357 10.130157161500144
276 6 8 -4.218149133049888 -3.0631197652367046 9.124543303373853
277 6 8 -3.270267979763183 -3.422455668312668 8.292068205259541
1012 28 10 -3.5403020416669366 -2.9294803527178686 7.469679769381467
279 6 8 -4.791577294154189 -1.1553647044139819 7.542281277260675
280 6 8 -4.853180158000977 -2.0638020887864053 7.129375334904625
281 6 8 -5.534340171800635 -2.7263456467529052 8.145101710853154
282 6 7 -5.116051396663255 -3.582375010794133 7.139988000502753
283 6 7 -4.712244697319092 -4.542308926162012 7.767744323217406
284 6 7 -5.4607759323244975 -3.5398232247386447 6.206041116120621
285 6 7 -6.5093592628250185 -3.1509831028489304 6.5023051146782676
286 6 7 -7.487654864595326 -4.381257957217303 7.314373831805675
287 6 7 -6.79781388423807 -5.223900805556211 6.450960341265442
288 6 7 -6.510503961755104 -4.481130129292066 4.983656603165303
289 6 7 -7.675434983294301 -5.795656033949395 5.819846601659355
290 6 7 -8.799600455339213 -6.435345310147473 6.204862065926158
291 6 7 -9.065785457743786 -5.151892690634479 4.3222815456255415
292 6 7 -9.008043078559574 -5.234378619055232 6.358311079145962
293 6 7 -7.810673053755989 -4.124355036265013 5.340239806141531
294 6 7 -8.495462351315574 -3.9023689207542422 4.4715824585303645
295 7 8 3.270412466143043 13.517335429802708 6.3618643141400675
296 7 8 4.523841775580768 13.453029638972916 7.919351383293149
297 7 8 3.4851956420394847 13.040142054844173 8.968615665508773
298 7 8 2.7214346857393865 13.719243080232026 8.304735636591381
299 7 8 1.7395365960356275 12.281996091699252 7.745734968262924
300 7 8 0.9308158643492493 13.109154306227811 8.093052356713633
301 7 8 0.6467685818014732 14.044127235305206 8.674984134807037
302 7 8 1.5498410154960298 13.841350565798768 10.2659929681515
303 7 8 0.8253733557057205 14.311021851920378 11.566667767755844
304 7 8 -0.09359457422981499 14.251929284660497 10.987910687816074
305 7 8 1.3671091271087674 13.442904087239148 11.41302874879714
306 7 8 1.182991614802476 11.95089350074656 12.113533003924513
307 7 8 1.4072159344858033 11.09568062203655 11.456285901706996
308 7 8 2.8953058788616937 10.323110319038232 11.738271344042438
309 7 8 3.9394834738646876 10.202666963927712 10.313802243659076
310 7 8 3.9178066756520424 9.855262086534855 8.648223194796387
311 7 8 4.94878414221817 9.817968303002354 7.715057290408601
1011 28 10 4.100647590624586 8.488044693613563 7.998031470934277
313 7 8 4.406924186435408 8.05575939550724 9.29665507118749
314 7 8 3.7538788758501744 7.447379435985487 7.9202803861797895
315 7 8 3.2703635657558765 6.970191810298198 8.743933670914755
316 7 8 3.804673293500714 6.364577794247711 9.549696108330162
317 7 8 3.0527775459672832 5.432818792004451 8.751410197789369
318 7 8 2.1844657691590013 4.570064899170648 6.899161153303132
319 7 8 2.0396369781969246 3.449771364898451 6.685588152874488
320 7 8 2.500618370087293 2.8747011984860866 5.94535519186807
321 7 8 2.458095709449576 1.2300107586536448 5.781660340885701
322 7 8 1.2156413454346586 1.0031413278648673 6.700967373692977
323 7 8 0.3002946532222578 1.6569313848695844 5.742120044641897
324 7 8 1.207331303081355 2.315563068534245 6.100486580588902
325 7 8 0.5377734596911696 2.8568707192872225 7.731632890043655
326 7 8 1.0638505048747366 4.399466646050542 9.10253014567305
327 7 8 0.8023200041985501 5.192873991510467 10.00384210318384
328 7 8 -0.3800673200844359 4.219678893934619 9.29842847902491
329 7 8 -0.852110513700719 2.2583633673678065 9.56576738987638
330 7 8 0.7582839600019278 2.311129908346047 9.919585214550068
331 7 7 -0.27274286285475985 2.1720898009733096 10.400205968095339
332 7 7 0.18288157161839497 1.4186347657656897 9.687718038145277
333 7 7 -0.7086964199460942 0.8279008054588161 10.805096587158026
334 7 7 0.0876860058569666 1.4668989048569017 11.735310674918473
335 7 7 0.488203584019822 2.0745902209346783 12.696819616337454
336 7 7 1.654792984465357 2.2319632730734247 13.60668407261951
337 7 7 0.640986853878022 3.317631644892492 13.225617440739958
338 7 7 1.4010919954491095 4.803095557500776 11.884723931286556
339 7 7 1.157689023549707 5.408225880823431 13.056470664495956
340 7 7 0.6059607776588681 4.550012963655784 14.457114919330076
341 7 7 1.5105411431234748 5.262954030309214 16.257304682426636
342 7 7 2.615152678052556 6.010175744570143 16.516797956430274
343 7 7 2.779133317607831 4.555472808656708 16.859248196795622
344 8 8 6.794727762408219 18.957707249725484 -9.764930937600182
345 8 8 6.087211530750809 18.33750510841654 -9.109395233733762
346 8 8 6.224923876400775 17.237855639173382 -8.214164084625274
347 8 8 5.289991997581728 16.745722486657918 -8.048722788195121
348 8 8 7.082293372156938 17.843685623309657 -8.52995424240496
349 8 8 8.142336705486397 17.124975450000672 -9.270087078859383
350 8 8 8.07300506453252 15.768693660465257 -8.915945270682938
351 8 8 6.81052778291391 16.051955043058893 -9.77246870947197
352 8 8 7.162637262048616 16.615470044224278 -10.5010858055128
353 8 8 6.43972111933184 16.09220246168897 -11.014248878453014
354 8 8 7.235340245891362 15.585178434005519 -11.929362275134896
355 8 8 7.282499601879969 13.998680761058807 -11.27894401322908
356 8 8 7.032847021630126 14.126953063826484 -12.374373706390946
357 8 8 7.798823074745825 12.801588104869671 -11.958503152642168
358 8 8 8.730600910884625 13.062339809353226 -11.156361942160745
359 8 8 9.680465238788695 11.137186017526643 -10.797464578707356
360 8 8 10.665469023949397 10.885026533527219 -10.960936522838853
361 8 8 10.652852223959895 9.389291838128276 -11.79854287411527
362 8 8 11.942925044314485 9.315570804908742 -12.192542636909483
363 8 8 10.934674812582761 9.218069197996826 -12.751874510752877
364 8 8 11.705552485226418 7.422622126845247 -12.822919115864464
365 8 8 10.694457516447123 6.706318674034378 -13.071941493550955
366 8 8 9.936815827858176 5.185825052939738 -12.47738959705248
367 8 8 8.711266160359324 4.699011846256906 -13.517538094048664
368 8 8 7.579835946179439 3.843563058203632 -14.163634460011338
369 8 8 7.237531906568357 5.261547849436406 -13.973578828627321
370 8 8 8.36989511782563 4.527972170702613 -15.949317278138514
371 8 8 9.451287846084364 5.182555596990075 -16.97303437727258
372 8 8 9.976236754732142 4.702623899986571 -16.045198690127712
373 8 8 11.461112332761966 4.418226334297759 -15.503439006829222
374 8 8 12.722778457176513 3.666885637597861 -16.245244251244895
375 8 8 12.32061733859312 2.3976516705074467 -16.960330165545972
376 8 8 12.034941609622678 2.291403129793383 -18.256518669782313
377 8 8 12.238841119828667 3.8632903118468906 -18.876987105178504
378 8 8 12.296844071181129 3.501877285189275 -20.11433085054968
379 8 8 12.736053780548033 1.944922459239094 -19.31294002903898
380 8 7 13.561277802026783 1.1333086975995288 -19.231054544488348
381 8 7 13.451621897374695 0.04029396415847978 -18.01451315453824
382 8 7 12.152046008889617 -1.119497402472424 -18.61548111096025
383 8 7 12.521511280890712 -0.298418250385929 -19.795605793333394
384 8 7 14.129188238069007 -0.9736318279490235 -20.581460556345295
385 8 7 14.17986305065436 -1.2019197080560322 -21.78785320552263
386 8 7 14.547805910673821 -0.3069528338238177 -22.928160492163126
387 8 7 15.429762936908906 0.8964096387670695 -22.256400957148525
388 8 7 15.481171202826667 -0.15107384425010378 -20.83550661274726
389 8 7 15.689750361634708 -0.9752326208048261 -21.237497237815692
390 8 7 17.355017879238098 -0.5762448763974389 -21.350516975720478
391 8 7 17.024215598596196 0.3809262101973252 -20.148511572542418
392 8 7 16.112742691963838 1.4731295286297672 -19.55711625528591
393 9 8 -4.440186005289161 -4.806651439840552 -15.515469151375036
394 9 8 -5.250605421850945 -4.742600154497967 -14.51637838537103
395 9 8 -6.827295724354314 -3.8991134666472735 -13.953573084829477
396 9 8 -5.852922113410367 -3.8793088313050044 -14.406387263008426
397 9 8 -6.412582494870577 -2.389724044783883 -14.284982082854164
398 9 8 -8.265598754022257 -3.3726074096729755 -14.477113213944994
399 9 8 -8.441518622807488 -2.58782774965125 -13.12637860411573
400 9 8 -7.326002600507568 -1.784476673335172 -13.50296655829079
401 9 8 -6.313192950144363 -1.09696341287514 -12.579578728885336
402 9 8 -6.247648190108798 -0.22633938282191227 -13.145531755994556
403 9 8 -4.936234015730248 -0.6074726120592817 -12.83888940007965
404 9 8 -5.174256274475571 0.23939769404131603 -11.622207104190515
405 9 8 -5.599486798571094 1.2639791067624275 -11.925054035065868
406 9 8 -6.29652938182535 0.6791232327403903 -11.189874153838309
407 9 8 -6.4701933799468465 2.095145222338041 -10.85691301225295
408 9 8 -7.958587857943749 2.3291116564617695 -9.243117752415555
1010 28 10 -5.8550107451349955 1.3814116705528137 -8.604359742017287
1014 28 10 -6.545624878046453 1.2468581793407958 -7.679399409947572
1016 28 10 -4.397762909342614 1.1658190799366444 -8.234843341722042
412 9 8 -4.0945686155681 -0.005906923741344427 -8.52128391108448
413 9 8 -4.051208472647675 -1.3161070127338241 -8.660481920196212
414 9 8 -4.435170762202943 -1.6132432429501546 -7.518513419133853
415 9 8 -5.740701421037792 -1.14664717637777 -7.806205073722101
416 9 8 -6.68823103268315 -0.8623289686387302 -6.53695709359611
417 9 8 -6.399924714467651 0.26975340501713585 -6.34566155705729
418 9 8 -7.911763893787714 0.353854894639874 -7.159239385749945
419 9 8 -8.950907357520377 0.052745715898812155 -5.885120357618659
420 9 8 -9.423153543838744 -0.9958964343501762 -5.145850926167414
421 9 8 -10.983720953266795 -1.0647275835835004 -4.922312858483797
422 9 8 -11.960799655700491 -1.47667988146747 -5.901693246841851
423 9 8 -10.974423687862007 -3.1023909264386367 -5.097768690246489
424 9 8 -10.725170097476788 -4.003915926495987 -6.1886651266476544
425 9 8 -11.09077307504429 -4.27270209259898 -7.825044975411134
426 9 8 -11.352751012563013 -5.115779204322685 -7.194250770485905
427 9 8 -11.777359691798216 -6.132568976348782 -8.064036040865526
428 9 8 -12.495620942278972 -5.306837576345723 -7.872557219497312
429 9 7 -13.200915135347092 -6.147737006944629 -8.577874068397229
430 9 7 -13.09744500180057 -4.8212607758316475 -8.603629065174188
431 9 7 -13.20857526543607 -5.066435230757548 -6.71044967617001
432 9 7 -14.371427135536887 -5.266891815124934 -5.728649432609648
433 9 7 -14.82717647557379 -6.707256505308979 -5.772231427909144
434 9 7 -15.42758594765238 -8.206061254832509 -5.259310299005491
435 9 7 -14.215331532384315 -7.861465126345934 -6.0011779139361385
436 9 7 -15.255041674893706 -7.1375939124731955 -7.137574358377325
437 9 7 -14.397668853757052 -7.211136680571668 -8.288644643545563
438 9 7 -16.307042902194766 -7.633360065958116 -7.64373698234598
439 9 7 -17.288982016368365 -7.921036268682811 -7.250919024519043
440 9 7 -16.412785978552957 -7.7177876390203695 -6.316268079951804
441 9 7 -16.516401683233177 -6.9734492927588745 -5.623929887729969
442 10 8 0.6712624956098002 15.334862103422875 -0.7945901282408196
443 10 8 -0.040177690419855444 16.455376067474713 -0.5611495445760016
444 10 8 0.06845558344544501 16.870581376589616 -1.5118792521283055
445 10 8 -1.965472299432661 16.625235217299664 -0.9071916756270995
446 10 8 -2.1824742101642136 15.370658234818098 -1.0195198622040824
447 10 8 -3.4352590292010055 14.7158573056742 -1.484450583465984
448 10 8 -2.8337658927271567 14.69771990253818 -0.4889228051790559
449 10 8 -2.5926626865666624 13.511179903922612 -0.7864668157930925
450 10 8 -2.9796466269632633 12.236767031167473 -1.4092004089061054
451 10 8 -2.1066168828103704 12.412416748365127 -1.7361206618495444
452 10 8 -3.085929692782169 11.611290000474819 -3.4192350567462597
453 10 8 -2.4038731526017205 10.643320771725623 -2.3467425114765117
454 10 8 -4.275244215686981 10.693151247503032 -1.757701737617926
455 10 8 -2.7633863533734577 9.954086334248926 -1.2526877111738817
1015 28 10 -2.3302995191774993 9.126224560434386 -0.1268357436663274
457 10 8 -1.8661944295546695 9.321816187470395 -1.6468212645417606
458 10 8 -1.238865902088078 9.989856254568384 -2.7714518542200652