# Generated from readdy-to-lammps

1005 atoms
712 bonds

10 atom types
1 bond types

-30.0 30.0 xlo xhi
-30.0 30.0 ylo yhi
-30.0 30.0 zlo zhi

Masses

1 1.0
2 1.0
3 1.0
4 1.0
5 1.0
6 1.0
7 1.0
8 1.0
9 1.0
10 1.0

Atoms

1 1 8 -15.700829970560616 -9.959376587459625 -12.377964457471055
2 1 8 -15.016729088908338 -8.887996160383468 -12.917554353408025
3 1 8 -14.706081099496137 -9.878987481136035 -13.364213484036474
4 1 8 -13.493900774848887 -9.376511269193792 -14.519881576959383
5 1 8 -11.954326835375985 -9.427286997895855 -14.277178798615276
6 1 8 -11.540216447404188 -8.15586019216721 -14.593440386988666
7 1 8 -11.104886102560915 -6.902453064270301 -13.788340418873648
8 1 8 -11.07019906229837 -5.873428194383686 -13.906372466131097
9 1 8 -11.890305055424314 -5.282352827204762 -12.373249398343036
10 1 8 -12.325549611040302 -4.14434691528419 -11.501940384079749
11 1 8 -11.122247025817648 -3.327090110455632 -10.927378043119718
12 1 8 -10.09407915657441 -5.082502717403343 -11.43430388703742
13 1 8 -9.037872059875575 -6.33692464614659 -11.71587716109629
14 1 8 -8.487461603092306 -4.971928531274533 -11.718407057133346
15 1 8 -7.173095429739111 -3.8853781887045233 -12.701867428413296
16 1 8 -7.1309590548325685 -5.0886320556844655 -12.77631994201451
17 1 8 -6.485410294073149 -5.01501148536567 -11.75955152903733
18 1 8 -6.852355535253568 -5.842981924831256 -10.982615382043793
19 1 8 -7.300061426733395 -7.402138542623093 -11.135084872942373
20 1 8 -8.329104472320626 -8.324640444509809 -10.08174214680548
21 1 8 -9.336961392739026 -8.347594042533851 -9.446039716696509
22 1 8 -9.53189638337106 -8.39298215819478 -8.239406923333817
23 1 8 -7.934890947749823 -8.610394239360435 -7.307538703694688
24 1 8 -7.257709300269516 -9.767181099615696 -7.384088958963016
25 1 8 -6.524792189878341 -9.074896207410692 -8.206093568074277
26 1 8 -7.1717603744865 -7.340071014848052 -7.794249018543521
27 1 8 -5.753858277924012 -7.808086434357815 -6.893678090635375
28 1 8 -4.7411348554797375 -7.945535551949703 -6.446465163982098
29 1 8 -4.399415132106291 -7.787842476655263 -8.132856795964981
30 1 8 -3.82218093019133 -7.377051272845431 -9.106879415336147
31 1 8 -3.9645182867969124 -5.458266410184323 -9.177896424444883
32 1 8 -3.5609056261116474 -5.756000344518976 -10.751343153882024
33 1 8 -1.9339222890933194 -6.604783687341403 -10.089777257181971
34 1 8 -1.9323323736065707 -6.523221505208793 -9.01401877493943
35 1 8 -0.8580487294233118 -6.789294804774038 -8.676445394985889
36 1 8 0.05914625441194982 -7.385094794776838 -8.966311410447464
37 1 7 0.4228769989265208 -7.357682464842409 -10.008295168421105
38 1 7 -0.2650091003009294 -6.455754919437058 -11.394545985809284
39 1 7 -1.4492470098298404 -6.9190855791995896 -10.926153412865057
40 1 7 -2.6730993925458257 -7.274069949436293 -10.729012846978575
41 1 7 -3.3313418788501625 -6.649638454901859 -9.781059520394681
42 1 7 -3.4439608902649526 -7.0403825801574245 -11.659265938971684
43 1 7 -3.895800755600971 -6.877585162421539 -12.865412173795187
44 1 7 -3.7656302139050526 -7.002776159269849 -14.181940822171022
45 1 7 -3.8869544517158374 -6.00961676062241 -13.359326896635665
46 1 7 -2.1085713808009605 -4.910264170308913 -14.45282393674358
47 1 7 -0.6862779965391088 -3.5702192990845854 -14.48229485208762
48 1 7 -1.315814393760665 -2.3620244600115607 -14.387184407773857
49 1 7 -1.0476801932183597 -1.4314532432752503 -13.722431534874847
50 2 8 1.0615640138913702 -1.464276568905292 -2.661585024070737
51 2 8 0.46735597401464246 -1.160028393019443 -1.6221075475178905
52 2 8 0.4145091990982539 -2.5192819364564585 -1.0755245659363482
53 2 8 2.03539296843633 -3.2684200911946792 -0.37057704951509063
54 2 8 1.4370497582197104 -4.417929815297447 -0.6909655952045655
55 2 8 0.6858714310864217 -4.760041560623088 0.5057321525343174
56 2 8 1.4183565310172146 -6.215978749450514 1.418364779569572
57 2 8 0.35195737617482303 -6.060795729759153 0.5535535313411961
58 2 8 0.5336913981259165 -6.546994429555197 2.352151928101119
59 2 8 -0.04824833584635387 -6.101596918548626 3.4579724041933204
60 2 8 -0.2515678259494889 -5.147885924902715 4.347795272022395
61 2 8 -1.6412066435626733 -3.903367155724377 4.603190881286736
62 2 8 -0.2196387150739113 -3.3840059310722177 4.332486592651221
1007 41 4 -1.8588640233896834 -4.956891812052243 4.394010972956025
64 27 8 -0.8129170781411589 -4.027836345900442 2.667192772204131
65 27 8 -0.8741603053070511 -5.023739685507997 2.0631537204288755
66 27 8 -1.457118203820244 -5.002698019332897 3.0201232446475874
67 27 8 -2.5156057846546216 -5.072904444549213 2.8493411782656435
68 27 8 -2.593419673065699 -3.736792075364743 3.0344004560823183
69 27 8 -2.636657697299007 -3.3631507671759424 4.128718586251375
70 27 8 -2.8181542212923474 -2.567568738968695 4.904302286916253
71 27 8 -1.3431301154273807 -2.100702956530376 4.962361318996505
72 27 8 -1.170702710734624 0.2423926768628397 4.562155391308276
1009 41 10 -2.0568026761540565 0.6702427517320729 3.900988653119521
74 27 8 -1.9989498373328098 -0.549316518738685 3.3980209318956245
75 27 8 -3.170899929530198 -1.2112681599190387 2.5139433565274008
76 27 8 -3.4278962732810836 0.4768472428984413 1.8528971273140526
77 27 8 -4.3596556696375846 2.537343890044099 1.846447700808036
78 27 8 -4.3482144675764065 1.9836482979398093 2.9600198072142705
79 27 8 -4.79332888133572 0.7452831413100632 3.0253181237224513
1017 41 10 -4.6146382049139545 0.4439252526490494 4.063765826200681
81 27 8 -3.6836346603987358 1.35466820554167 3.6177103405253312
82 27 8 -3.7933186079208268 3.2449149958472776 2.734646626848999
83 27 8 -2.33284911839417 3.6886562374935776 3.073028020400229
84 27 8 -1.2461854689217464 3.036297042809991 2.36314183493167
85 27 8 -2.08510969724016 2.206049833605101 3.314785201100872
86 27 7 -0.6982554228229301 2.4177895043497406 3.101118665462519
87 27 7 -0.9291221765949531 0.8282940182998152 2.5362744414681813
88 27 7 -0.5736292744245048 -0.5658983411172014 2.4864062251720362
89 27 7 0.6408352857713465 -1.4784224500422112 2.5733295479954363
90 27 7 0.9604164999196635 -1.3992185092501 1.5696815793650152
91 27 7 1.005799798755225 -0.3314065332240348 1.1417280915512629
92 27 7 1.5633004671005999 0.43263514377183754 -0.22391297563258258
93 27 7 -0.11071028293009028 0.3572235421301427 0.6713446392864467
94 27 7 -1.5877179589151282 -0.021599333435096138 0.8950966470574229
95 27 7 -0.5778822862910935 -0.4836404914628383 0.1996218546617007
96 27 7 -1.1423148740103948 -0.2693128800163039 -1.1799959023616593
97 27 7 -0.8711783440147886 -2.0679514537643104 -1.3090853371625069
98 27 7 -0.7812856202774722 -2.971496243313473 -0.5393575546479158
99 3 8 -0.008294033225951344 -7.224402760201641 -0.314557961792572
100 3 8 -1.501392255492167 -8.385704832160396 0.09983797828864671
101 3 8 -1.658458102877504 -8.893569589461775 1.7263233339897135
102 3 8 -1.4478060627007665 -7.944070034543121 1.445102748968645
103 3 8 -2.3719373333964255 -7.7990739372038025 2.5471137376526665
104 3 8 -1.9759774329290145 -6.45145864585123 1.1884433207341514
105 3 8 -2.7153792620080575 -6.924213504553503 0.01093923295276809
106 3 8 -4.044521031992208 -6.817467043260943 -1.1431713970968296
107 3 8 -3.1885095313082643 -7.4268468164623265 -1.7130715679283677
108 3 8 -3.9743820148780205 -8.140361966124038 -2.0560896782149776
109 3 8 -4.57571916635973 -9.974753793038277 -1.7496377356540702
110 3 8 -5.091926788321358 -8.372692547203684 -1.0722063179395962
111 3 8 -4.885261478962356 -10.080124032374568 -0.43641733924205056
112 3 8 -5.3582893515511225 -10.134651518021826 0.5612030334154956
113 3 8 -5.679173196734492 -11.067201117450422 0.14336849883077077
1024 41 10 -5.2132469922625875 -12.380006296339499 0.5938283251912599
115 3 8 -5.079416165331073 -11.719144704548034 1.5630666376711042
116 3 8 -4.369979018915389 -10.87441365385481 1.0626119128606586
117 3 8 -3.223315625534243 -9.053641090495104 1.1155817614143606
118 3 8 -4.945229948703678 -8.195577173920043 0.7718418230558655
119 3 8 -5.463274433628689 -8.472981810576949 1.7862066868915576
120 3 8 -4.957464250934087 -8.493827996216199 2.7668031929062877
121 3 8 -4.167336500022147 -7.068302185755013 3.2160739679296877
122 3 8 -4.666794926192944 -6.625498036526111 4.244474204704827
123 3 8 -4.1365297671037435 -7.601429083574212 5.30079769792318
124 3 8 -3.5515038176420384 -8.609738745500463 5.746348455709268
125 3 8 -2.530425828857945 -8.013978684475953 4.414137178503739
126 3 8 -2.9735464631890225 -9.33055356056352 4.186244416342654
127 3 8 -2.1174695233710783 -9.978142505699749 3.090233329732026
128 3 8 -2.8223557874042835 -10.411787881219173 3.749431534041295
129 3 8 -3.2883594653751866 -11.67955667771805 3.8057252506813537
130 3 8 -4.76952937445142 -12.839131241352412 3.203996102696766
131 3 8 -6.297110981587208 -13.42832783325273 3.6636620027275546
132 3 8 -7.255173273100419 -13.485113678216129 3.973456942703845
133 3 8 -7.3251151530456555 -14.976207513628019 2.6194185524790643
134 3 8 -6.310652971270571 -14.389431435808158 1.4926472059411557
1025 41 9 -4.171039623821641 -15.005174790257241 0.947002245502153
136 3 7 -5.135328851148419 -16.244987806591478 1.694220093803375
137 3 7 -5.146459191695728 -16.615491801693402 -0.02794871621580159
138 3 7 -6.03194988834253 -17.61077371919999 -0.3481193471997699
139 3 7 -4.681303964911673 -18.180264748086984 -1.5042707106466195
140 3 7 -3.481016034870023 -16.80453808723966 -0.18670590758148092
141 3 7 -3.6619877473271516 -15.344914594663535 -0.10176776914509084
142 3 7 -2.0001091288284574 -14.421833038818194 0.395247981673495
143 3 7 -2.78192885617275 -15.396406542331446 1.5948292048955126
144 3 7 -2.1845467370415874 -14.63398564420919 3.183280906642225
145 3 7 -3.8725465936156707 -14.563514804559368 3.0721373654173365
146 3 7 -3.979020202664988 -13.687722175517965 4.069799218049415
147 3 7 -4.4385551688225044 -11.770786976384455 4.076170885517627
148 4 8 -0.5036837618644421 11.486386152839716 15.432759965226737
149 4 8 -0.8322144377453583 11.785512359693024 16.95138224353812
150 4 8 -0.6684511927046949 11.417442711754969 18.85131037886437
151 4 8 -1.48680102601115 10.684190834324223 18.645704412152494
152 4 8 -0.77987396820986 10.512953991474172 17.207589242575914
153 4 8 -2.076871080356291 10.94087665089457 16.855352336351775
154 4 8 -3.022636682654356 11.207708996199681 17.744309381322388
155 4 8 -2.665640925781647 9.758432546403695 18.520053431221687
156 4 8 -3.2539504627020066 8.399714957977826 17.567649711820472
157 4 8 -4.098986519032518 7.477199892493374 16.962324547374397
158 4 8 -4.811620988095591 6.7285430201984315 16.619869010349863
159 4 8 -3.210817774586068 6.2975797068586665 17.688229248387668
160 4 8 -3.210365613515088 5.898126981356769 18.649632469846992
161 4 8 -2.281762713902932 5.1221210700773 19.740452060499695
162 4 8 -2.657573709327374 6.483153081586729 20.830055163950792
163 4 8 -3.58263005534713 6.180323195112236 21.646522643763753
164 4 8 -4.63371425309116 5.623284965018241 22.764846438233462
165 4 8 -5.10944173004772 6.362359926932877 21.36011087618162
1031 41 10 -4.647446661569181 7.948131325684637 21.441152379348242
167 4 8 -4.349050191342644 7.5861916278163 22.943842952797546
168 4 8 -5.658225559185844 7.848734060472837 22.61988443784853
169 4 8 -5.4190291410009035 6.94435117712972 23.958467414301897
170 4 8 -6.14933681474597 5.856492734555223 24.768187682417526
171 4 8 -5.394625346137826 5.168237976796985 25.907446505801868
172 4 8 -4.2167332659488705 4.575573350869125 24.441486058626175
173 4 8 -2.8522330674581586 3.8510102768840273 25.17513184267114
174 4 8 -3.0559058245616746 2.1497717633571876 25.743275281194247
175 4 8 -2.3694400660353527 0.6508871036484478 24.35638946525495
176 4 8 -2.4848613256725987 -0.5819532566611799 24.03411525141281
177 4 8 -3.369848519713746 -1.0296888835639777 25.714890358863354
178 4 8 -4.05705407249958 -0.6020951976264027 26.661426547337157
179 4 8 -4.062859067017783 0.7728283656844113 26.82390676266674
180 4 8 -4.4537024346325795 -0.5314823946694482 27.60507214932155
181 4 8 -3.576947284456277 -1.1617509222706517 27.434639308423726
182 4 8 -2.291815863110699 -0.32192262982137376 27.754763877911888
183 4 8 -1.5407372895774867 -1.2101992349532409 28.413678303872953
184 4 7 -1.0746531855200518 -0.34936543647851864 26.50503819468715
1028 41 9 0.48122323512827303 -0.801742659937767 27.593660113365456
1023 41 9 0.25789961739682027 -2.6301099230661 26.89723425948505
187 4 7 -0.49800299504343526 -1.7281713017170026 26.562867057205928
188 4 7 -1.247132387090223 -2.449301401261196 25.437701673457372
189 4 7 -1.8156120333935035 -3.6130530260195717 24.011817275129033
190 4 7 -2.561508066920207 -2.3438297862182744 23.223107281965696
191 4 7 -1.2667584753559014 -2.4678841452465 22.367252506657948
192 4 7 -1.924132538432472 -4.008125902115725 21.852622959544806
193 4 7 -1.2943920625668852 -5.4957935084621115 21.574996805104124
194 4 7 -0.4560963889775968 -4.809956447602887 23.21375318503249
195 4 7 -1.1978417535268742 -5.638510271730577 22.913732677697208
196 4 7 -0.9516455927446746 -7.101369449132279 22.807116818986298
197 5 8 0.515837150416752 -4.51955736003784 13.22985092995947
198 5 8 -0.18595401917982993 -5.3155367539853495 13.760931516320953
199 5 8 -0.3106110383230049 -5.23181127324277 15.17277762040998
200 5 8 0.6739116518716456 -4.115361436925237 14.299105558468447
201 5 8 1.4382627514061914 -3.5212552943831112 13.63121209248631
202 5 8 1.4717207350637243 -4.580060845289857 15.081473074681638
203 5 8 2.5762998600341644 -4.157498414932289 14.702892237312842
204 5 8 2.9137250067869753 -3.82039341447447 15.674326899298993
205 5 8 2.589521899811679 -2.455949916459549 16.96093887768951
206 5 8 3.0806193766816703 -1.2241992690116434 16.740250060087522
207 5 8 4.1669289688441475 -1.3072773725040931 16.37921296692342
208 5 8 5.5302826305655595 -2.0696856258911 16.952148969899355
209 5 8 5.0446255942717455 -2.3102563805552636 15.671528515918643
210 5 8 6.320723487835558 -2.8538225622322417 15.819607848583978
211 5 8 5.830222458285982 -1.8192978378516012 15.539944535877423
212 5 8 7.398230226435766 -1.1783086957088562 14.910637377775954
213 5 8 6.475728273721713 -1.248685012703407 12.987136138621171
214 5 8 6.091365703636786 -0.3562949640920464 12.394700158111947
215 5 8 7.707935524392451 0.18715826086661036 11.68287681148583
1019 41 10 7.956376405913395 1.7552744823908653 12.011421595562272
217 5 8 7.29348017466526 2.0446350464345535 11.084642324762344
218 5 8 6.39065815745649 1.5322026319359145 10.299979244321408
219 5 8 7.926977891038889 2.2639419032714336 9.506034011093202
220 5 8 7.994234947102183 0.4592978750946102 9.853822144597423
221 5 8 8.197623492562968 -0.4755656692965786 7.8212873012899395
222 5 8 7.833875930632797 -0.7860257082463062 9.386123460199329
223 5 8 7.065250605557223 -0.5154945557893607 8.612657630168803
224 5 8 6.705469173438895 0.3555115453038226 6.68392728565631
225 5 8 8.146294397493275 1.3013190315230372 6.376723935931185
226 5 8 8.5674612130367 0.9176503852597279 4.92545056884362
227 5 8 7.081054702067279 1.8694540606805083 3.923404641986341
228 5 8 8.185771289779845 2.719950960552171 3.3871300606640578
229 5 8 8.81798253128674 1.7448317955954686 3.8141533121602844
230 5 8 9.77337588318091 0.6216288018719726 4.182838828892441
231 5 8 8.333091664233566 -0.09033844448789273 3.900216137569316
232 5 8 7.825179839417809 -1.6699706598102593 2.9487426950496634
233 5 7 9.265376315526284 -1.7494821345563258 3.134183689551438
234 5 7 9.68270164196433 -1.917143200942848 1.646836444604336
235 5 7 8.077920619639643 -3.2612674722619657 0.4787617802280789
236 5 7 7.369458132768414 -4.499547598899876 0.3367496524635932
237 5 7 7.470938874947162 -3.8979611837154318 2.3111241588366602
238 5 7 6.816167170227967 -4.887705047586997 1.686101524503706
239 5 7 6.4975483624588914 -3.5195432030760783 1.1564798679756843
240 5 7 5.3675148472414955 -4.080886316865545 2.046703509867131
241 5 7 5.49672466881115 -2.556575072129304 1.7108538492114114
242 5 7 5.371742189645979 -2.907149334108813 2.679388332013016
243 5 7 6.0575521871948155 -2.393873737323242 4.363831875347711
244 5 7 6.689586492795831 -1.5609689343644457 3.9653804984930017
245 5 7 5.2836373718022855 -1.4781456994986282 4.5488822599650796
246 6 8 -1.5003290883128348 2.0039922202563307 4.792985065255621
247 6 8 -1.226336709514168 3.14105373636242 4.75747804964664
248 6 8 -3.1095641846510675 3.517728385926591 4.73495781356597
249 6 8 -3.6666213314771756 3.6834327862731757 3.8256158959566258
250 6 8 -2.5974485505072202 4.809735303451852 3.0594800235723554
251 6 8 -1.1397206034950362 4.339940006494997 3.9704555025814416
252 6 8 -0.12509369277612184 3.588746342903289 3.8037851839701147
253 6 8 -0.3826505924173873 4.160310921419352 4.889440155140399
254 6 8 -0.9956542730934009 3.332450213640942 5.944307193531993
255 6 8 -2.0972510566332336 3.3907105213516906 6.169462815656811
256 6 8 -3.3191034148190046 4.393930074083743 6.486370206554483
257 6 8 -3.019657591578655 5.788326018579524 7.174896783868331
258 6 8 -2.2625266029529985 5.626766174032945 7.762350337521676
259 6 8 -4.057157424950021 6.294649374236484 8.360478433413185
260 6 8 -5.129348622595875 6.143625976619259 9.722648345227633
261 6 8 -4.547162040629672 4.682869044340295 9.492846220305145
262 6 8 -3.164847306762792 4.516054352632351 10.077096110403588
263 6 8 -3.0249739635738173 4.329571457515889 11.562416934231278
264 6 8 -2.8003112538465857 3.4502458088744827 10.205074808047737
265 6 8 -2.938247932621914 2.1541701833924467 9.411010626638948
266 6 8 -0.977648311992067 1.5457659054017432 9.831716280180304
267 6 8 -2.1325136544982795 0.46185898626478633 10.649097006387946
268 6 8 -3.2401393365653828 0.43009037623779894 11.083281169316187
269 6 8 -3.5688718172922758 -0.25141062848621465 10.224617141239271
270 6 8 -2.9977364699074704 -0.3685534671996679 11.82296978898387
271 6 8 -2.6345886258079116 -1.7173619316109143 12.786249034324262
272 6 8 -3.585752074676487 -2.7526782770217313 12.246976449287326
273 6 8 -4.232292304265563 -3.4540334942838844 12.711470772448216
274 6 8 -4.070044964962859 -3.673503555451963 11.217491548284574
275 6 8 -2.9265098707522665 -3.5326505022875727 10.638298866480865
276 6 8 -4.0331730234460785 -2.87424742342205 9.616945810504298
277 6 8 -2.9343909299276985 -2.669305765849976 8.751815006115194
1012 41 10 -3.586160175900276 -1.8510954155704924 7.718539898756243
1026 41 10 -4.302517309812134 -1.0891310533338343 8.041549246085635
280 6 8 -4.992994627367814 -1.8710365173230732 6.5914261597437385
281 6 8 -5.503636627092483 -2.4424844146007656 8.393431807984246
282 6 7 -5.044786631442085 -3.076216553035884 6.930553813048275
283 6 7 -3.3479875217347055 -4.553645657494786 7.016627058034981
284 6 7 -5.137690693320505 -4.134859732145988 6.544859056591959
285 6 7 -7.258630265697644 -3.341027080319395 5.9915599547305
286 6 7 -6.29893732376321 -4.374995059412034 6.9831583408180045
287 6 7 -6.0552860211141155 -5.788458043059276 6.541486323623205
288 6 7 -6.540627282497148 -4.7486662310359575 5.9012910580288995
289 6 7 -8.147008355562633 -5.577086380129563 5.4494556847701325
290 6 7 -9.377254249957684 -6.423182942841094 5.6274435481650125
291 6 7 -8.323492685999152 -5.418321835389339 4.360040259229692
292 6 7 -9.795159950506996 -5.280700079092638 5.790200139302697
293 6 7 -9.17544226128252 -4.069453563975718 5.640833784686072
294 6 7 -8.533973965380316 -3.0841125713100284 5.386659482978815
295 7 8 2.5261999949704737 12.62472484513668 6.513966649107584
296 7 8 3.979274240153539 13.118527545537091 7.751817606439995
297 7 8 3.4989585362865028 13.80232541145605 8.972914734441666
298 7 8 2.099673513573724 13.16792317960992 8.678171123700196
299 7 8 0.959438060899184 12.349484404198167 8.018053875210688
300 7 8 1.1913962131260867 13.394354154380215 7.288310994642217
301 7 8 0.8792111794116995 14.112450742179032 9.235567415573279
302 7 8 1.6823949774707225 14.998840825347383 10.36503329239068
303 7 8 1.991708185588992 14.381391322293013 11.174327211862234
304 7 8 0.4911985726022298 13.309824706829113 11.143620160049363
305 7 8 1.3794589758435052 12.861615575893511 10.339489012224659
306 7 8 0.3530406156708777 12.242865924815739 10.651631226935535
307 7 8 1.6528310949815455 11.263687054231307 10.961628527061542
308 7 8 2.707978769647605 11.223482991044008 10.362376681932796
309 7 8 3.50024936732804 9.71536908231743 10.585789896523229
310 7 8 5.133243850176671 10.366049218818562 10.125004094404751
311 7 8 5.217942214370628 9.982641882905462 7.860690481758121
1011 41 10 3.2547887589494735 9.902248867699987 7.76351061698224
313 7 8 4.339356325700087 8.192361991707282 8.214579324862214
314 7 8 3.1291359067317677 7.340220542286681 7.897446899228301
315 7 8 3.16768574898442 7.7559197359120375 9.07672360844687
316 7 8 3.828132665909346 6.690907116433878 9.49963615725818
317 7 8 2.848089771825134 5.9075981580794155 8.674626029821335
318 7 8 2.992578342689847 4.169834810925918 7.794523670421709
319 7 8 2.291403272024974 3.426222236978658 6.987556668360805
320 7 8 1.3721347621550306 2.957341473693083 5.776974168331704
321 7 8 2.164190527971341 1.6529059183576962 6.674718487734501
322 7 8 1.2390002312469919 1.5460391907725548 6.03817451616155
323 7 8 0.6815687023392176 2.281057216246965 7.3979823861004315
324 7 8 0.6116382428239149 3.3748804941225297 6.34279148352503
325 7 8 0.4542481101476395 3.3955915395827163 7.673570479008269
326 7 8 0.10936780160695143 3.8657717786223573 8.50499793906221
327 7 8 0.38387543555578996 4.992676086388225 9.12139758057738
328 7 8 -1.1130377207343194 5.09165249246333 8.595477917497282
329 7 8 -0.8940785570128369 3.2730973153133207 8.959981362010252
330 7 8 -0.0310235727093879 3.405067917812412 9.790677617954378
331 7 7 0.7742991807441643 1.6536648251461392 9.919859475594597
332 7 7 -0.07791715543594062 0.5649673270321808 10.512767287537518
333 7 7 -1.0640211025189512 0.8406934279452123 11.076716499296436
334 7 7 0.5664055608539654 1.7827551050011519 12.210279550158061
335 7 7 -0.1188933247696815 1.5432931151001805 13.490507065137253
336 7 7 0.8418440300262713 2.5779372064537287 13.164604511425894
337 7 7 1.4814549906581962 3.423550951411638 13.372925735757926
338 7 7 0.9918328333335523 4.306139612222386 12.882925533164597
339 7 7 0.24874835581120996 5.124902311311265 13.99271907050074
340 7 7 0.5938558655369717 4.4354021476281424 15.059064731300115
341 7 7 1.5115273849901811 5.048600316719529 15.44671570514537
342 7 7 1.4394662365094377 5.692577355904314 16.76768455428514
343 7 7 3.3982129501273266 5.723495594777397 17.107975951052747
344 8 8 6.419492296155781 18.359009554105224 -9.44592363428418
345 8 8 5.68051797817584 18.421519025704963 -7.6390020757088966
346 8 8 5.397592120148838 16.866770054586148 -7.758200132352078
347 8 8 5.87786866589637 16.12320839468602 -8.685206335209328
348 8 8 6.0703308976251416 17.728009805285563 -8.7272842184984
349 8 8 7.2236967476187415 17.32213798725804 -8.930570234641257
350 8 8 7.023793098826088 16.120757248696453 -8.753023830895687
351 8 8 6.670306532169872 15.759234985970458 -9.864150648014231
352 8 8 6.579809592780503 16.838948724433536 -10.045895583039016
353 8 8 6.528137650452371 16.281726017301793 -11.74773210403653
354 8 8 6.66697378686951 14.622477701552135 -11.067629399617362
355 8 8 7.774284716577941 13.712265474584619 -11.023329360087912
356 8 8 7.329597335794629 14.156342098934493 -13.140413835833238
357 8 8 8.466379273481552 13.933675009126883 -12.359121465147206
358 8 8 9.339559681612505 13.356268437870224 -11.387006519518117
359 8 8 9.54129592164787 11.754886012028548 -11.706071710549985
360 8 8 9.607491700044385 10.28937545746685 -11.908068030257885
361 8 8 11.405093592525635 9.25349087377339 -11.147100669214298
362 8 8 12.602218549359954 8.840308566317368 -11.796347822015138
363 8 8 11.927176981825445 7.996372417470119 -12.709239360055804
364 8 8 11.74018479166975 6.78008818544863 -13.14972529467133
365 8 8 11.476628029937741 5.4697003802152615 -13.250371138118423
366 8 8 9.66498719899341 5.373345947646766 -13.390362557086636
367 8 8 9.354739408993332 4.56904915615433 -14.112946406068268
368 8 8 9.02083436665939 2.9609057066153706 -14.626617400056547
369 8 8 7.988962066705511 3.5041738268453213 -14.654807648959439
370 8 8 7.828104667986172 4.818707287686965 -15.592531362017326
371 8 8 8.61696715338857 5.082856852527847 -16.77107649809173
372 8 8 10.29865655277753 4.328245928604878 -17.370550042325792
373 8 8 11.228125678053276 4.572443234681942 -16.19931449475155
374 8 8 12.834635042229118 3.7403393622375307 -16.408467067790095
375 8 8 12.316404843915384 2.626032430058163 -17.500616763298197
376 8 8 12.460963891535716 3.154859129565476 -18.58542874828824
377 8 8 12.258815071239415 3.892048796623653 -19.847098743269672
378 8 8 11.544957370974796 2.0820644649573277 -19.2001677489525
379 8 8 12.67904622583875 2.157095248795251 -18.775529351874628
380 8 7 15.157601134877568 1.4965069052249254 -18.673356597928993
381 8 7 13.545573333303084 0.862852819402523 -17.958548771055714
382 8 7 12.710542729559494 0.16820032193850165 -18.955560257224597
383 8 7 13.914073787193926 -1.1302778251604966 -19.04774108617151
384 8 7 13.897954442804636 -1.6103575720829066 -20.338493010514057
385 8 7 13.601127580771708 -0.33949071035442574 -21.51772044249577
386 8 7 14.158040853189673 -0.04383174495550114 -23.75313967455161
387 8 7 15.119819873083605 -0.04315010203830663 -22.60305037384239
388 8 7 15.853220599214154 -0.8885150605905309 -21.8913096998767
389 8 7 16.958209052256194 -1.850426742365905 -20.626519725234854
390 8 7 17.391829519236776 -0.4009346294409524 -21.35223648583052
391 8 7 17.392963086831394 1.3689477131465486 -21.14289750256036
392 8 7 17.270339353790707 1.5237242725428597 -19.778195953891018
393 9 8 -4.302175532220718 -3.9526672073205824 -16.091504023047978
394 9 8 -5.367184711692645 -4.8804281140345545 -14.626301214990587
395 9 8 -6.959624762833382 -4.412731357328915 -13.975594704594808
396 9 8 -6.17379438641516 -3.977249874282296 -14.91489001791208
397 9 8 -6.655842942310624 -2.926458154473435 -13.989862028185751
398 9 8 -8.438007018214645 -2.1309664457083537 -13.983410630546887
399 9 8 -8.550972277629073 -2.3593960949114696 -12.389476724103135
400 9 8 -7.76970511274402 -2.831709200988527 -13.45967404721549
401 9 8 -6.959566507680385 -1.4750320107560262 -13.05700848766268
402 9 8 -6.567054913708688 -0.22110169539938304 -13.941581162600494
403 9 8 -5.664268136716931 -0.018796502372264337 -12.988793165822486
404 9 8 -5.699542257917115 0.38872117500162656 -11.537676829243836
405 9 8 -5.463649002872111 1.5524359671191763 -11.368577176283122
406 9 8 -6.4081154470656365 1.3635125956687573 -10.863159951794149
407 9 8 -6.907474458527059 2.5148726406690183 -10.29279448579769
408 9 8 -6.194221192843506 1.7589410967677483 -9.13935672735111
1010 41 4 -5.0965533520661 1.1862328969190281 -9.49419663322026
1022 41 10 -6.8856827699670475 1.1083130202826668 -8.17835457365369
1016 41 8 -4.506307166270148 1.6178582941647826 -7.792074998363363
1029 41 10 -4.61078278568171 0.039992332077369915 -6.892380744495108
413 31 8 -4.322504160666049 -0.7164980865502766 -8.10941806625798
414 31 8 -4.811797964677588 -1.5364426447783857 -7.900866450334162
415 31 8 -6.469332022850735 -0.966727945339577 -7.706480650341839
416 31 8 -7.341145816440487 -1.2305164660379344 -6.0604115116938075
1021 41 8 -7.127032121028486 1.0089640363530206 -5.723832480931267
418 33 8 -7.955763103691917 0.886122023961276 -6.3076350239328765
419 33 8 -8.426048379464728 -0.39516758303973576 -6.243329826454385
420 33 8 -9.339793797232756 -1.4338784766741315 -6.113436559112123
421 33 8 -10.682262380003401 -1.7696694635251695 -5.805024847230718
422 33 8 -11.842537427044409 -1.5993006806322019 -5.016226185779136
423 33 8 -10.81629738998011 -2.8681936404101642 -5.298352605048062
424 33 8 -10.89985650834048 -3.6679389112165226 -6.863705179393312
425 33 8 -11.308244563692867 -4.730783988276331 -8.88160685628882
426 33 8 -11.021604022342219 -5.385167762601122 -7.3181027282185305
427 33 8 -11.76783828382927 -5.798717900284694 -6.475305518417961
428 33 8 -12.805887718537495 -4.908192502534624 -7.049397144519576
429 33 7 -12.71899712779135 -5.285779619392562 -8.929787133739028
430 33 7 -12.913621278362205 -4.096101975235721 -8.80984900977262
431 33 7 -13.929755346620164 -5.362451308569338 -7.740724735042843
432 33 7 -14.833279807555932 -4.967213441789916 -5.373824844425133
433 33 7 -13.890517249635685 -6.667063831732829 -5.602341922006957
434 33 7 -14.653746655689769 -7.200604126534694 -6.483082643969576
435 33 7 -13.634696019279064 -7.4945797732584145 -6.799856393917621
436 33 7 -14.906527996110807 -6.475698993885504 -7.553053469366202
437 33 7 -15.216153580520734 -7.797328218708771 -7.25903631136445
438 33 7 -16.57742948694405 -9.02857964262225 -7.1652829572850845
439 33 7 -17.10992862359008 -8.24243432643521 -6.676770222834513
440 33 7 -16.75846268603794 -8.202459455616284 -5.599441202166148
441 33 7 -15.288108899411277 -8.347379028331757 -6.09568084166421
442 10 8 -0.708387711514998 15.647691000103928 -0.23501753656066027
443 10 8 -1.1492778354414788 16.144206405474275 -1.3664362201821987
444 10 8 0.260685381837155 16.739819206898712 -1.050930535018973
445 10 8 -1.913643752344131 16.713813058530718 -0.44473182557758534
446 10 8 -2.6230319306900793 14.84581183514072 -0.38660460217397613
447 10 8 -2.508343617984817 14.15245864331934 -1.6027215244751674
448 10 8 -3.149413452787039 15.201338850204845 -1.2675754926825162
449 10 8 -3.719364793015806 14.391934735224922 -0.4244131357950579
450 10 8 -2.458628147591053 12.947617919775864 -0.8340451307192953
451 10 8 -2.8606617874195344 12.439905804019434 -1.6198680396017604
452 10 8 -2.210231056489039 12.02184414067048 -2.9519125484072246
453 10 8 -3.666099084475979 10.759616338758988 -2.7857670185869376
454 10 8 -3.74962275102848 10.108586451983596 -1.4100950633677896
455 10 8 -2.688964183240991 9.64549581180261 0.18339534588502587
1015 41 8 -2.1301559704635387 9.1602925072748 -1.1601104689549657
457 36 8 -2.8573891676355885 9.90675675416679 -2.2239873046698007