# Generated from readdy-to-lammps

1005 atoms
618 bonds

10 atom types
1 bond types

-30.0 30.0 xlo xhi
-30.0 30.0 ylo yhi
-30.0 30.0 zlo zhi

Masses

1 1.0
2 1.0
3 1.0
4 1.0
5 1.0
6 1.0
7 1.0
8 1.0
9 1.0
10 1.0

Atoms

1 1 8 -14.742870449673434 -9.276010165782322 -10.594677517495187
2 1 8 -13.723580707508205 -9.706220965273081 -9.526391735576048
3 1 8 -13.612593409905463 -10.056445266555274 -11.187499541214175
4 1 8 -12.172500463068886 -9.556323770806618 -11.73152293721976
5 1 8 -12.361036745112445 -9.18237112111668 -13.129162468826555
6 1 8 -11.984276413663727 -8.010833908188788 -13.493237181643847
7 1 8 -12.567433885807647 -7.073947098640923 -12.579879304037973
8 1 8 -11.12945242962623 -7.368371390553257 -12.971408912192596
9 1 8 -10.817190982994571 -5.919345380756118 -12.158242606911777
10 1 8 -10.73336346482594 -5.446449291207152 -13.08687012622326
11 1 8 -10.298843804111423 -4.213375132095651 -14.220140775610366
12 1 8 -8.904356349511323 -5.1938285866590785 -13.765222810950458
13 1 8 -9.155300421276486 -5.585051825383587 -12.283704501209664
14 1 8 -8.136855014906425 -6.861360215401227 -12.3140711724795
15 1 8 -7.055753111240502 -7.714003037784383 -12.017237714552614
16 1 8 -7.027991320648045 -6.622828043047174 -10.765598911047404
17 1 8 -7.723710844840041 -6.565728454146496 -10.056881640765116
18 1 8 -7.289281437043209 -7.980466254015963 -10.592399711217277
19 1 8 -8.948935125264018 -7.502398554379668 -9.674724914001787
20 1 8 -9.570947298690353 -6.5720851623729795 -8.522758336983228
21 1 8 -8.976688745368392 -8.306448309001564 -8.702016451268458
22 1 8 -7.073835710755622 -7.654179900788281 -8.349646078929695
23 1 8 -7.359383436367907 -8.634755698276944 -8.61785399993656
24 1 8 -6.428954297979444 -9.407935818482462 -8.671146693648293
25 1 8 -6.181064506796337 -10.186510225297077 -7.868890510575347
26 1 8 -5.2748122792249745 -9.331110925882962 -7.348132032979888
27 1 8 -5.9096960071479625 -7.740932290401781 -6.990752503923376
28 1 8 -6.341337213651252 -8.629116869402997 -8.093282175340065
29 1 8 -6.103935608176729 -7.310321083886824 -9.623539798667135
30 1 8 -5.892979945445713 -8.609829837202756 -9.398861293721726
31 1 8 -6.088295199023961 -8.502842430113244 -10.794464535997735
32 1 8 -4.6072792053429605 -9.305627300314496 -9.918802620844044
33 1 8 -3.390505508371865 -8.792523700820611 -9.413209958311027
34 1 8 -2.7407897948232316 -7.6101507888506426 -9.610725268240886
35 1 8 -1.5910797331864297 -6.888449474735683 -10.23906654798564
36 1 8 -2.0048282712189804 -8.082703115861516 -11.32444028693712
37 1 7 -2.475855924915333 -9.183346090785324 -11.252797562456026
38 1 7 -1.802202029836142 -9.199964985509876 -12.442009097796277
39 1 7 -2.015133699007302 -8.126126294099274 -12.754661491284093
40 1 7 -3.1476900649676915 -7.146047631373081 -12.256027137718132
41 1 7 -4.613731954286774 -7.712102054945851 -12.38379489919776
42 1 7 -5.863737745958863 -7.1448567655225155 -12.726428451400565
43 1 7 -5.240590707707966 -6.785327300744354 -11.25318458290947
44 1 7 -5.004057644846247 -6.223704716642332 -13.21235958860086
45 1 7 -3.876776906978333 -6.031932425462845 -13.303002073609848
46 1 7 -3.2417841360330346 -4.77593625646953 -12.66712794932936
47 1 7 -1.9716488797759872 -4.478630380221728 -11.741561788911218
48 1 7 -0.719314764663268 -3.6883609139339915 -12.94389158762421
49 1 7 0.13755289701374282 -4.259547494755071 -12.25135265066364
1050 68 4 -2.354995267993537 -3.29331750178756 1.6175188723004106
51 68 5 1.9427876253473215 -4.755764226544208 -8.194937604645354
1046 68 5 -0.07601847310103198 -5.784061575429342 -1.011473590407805
53 68 5 -1.3171393765804622 -5.589246899340186 -0.2304200289331429
1042 68 5 5.249189537005757 -2.9449294970123376 -2.27901608250625
55 54 8 3.7502252227509185 -6.956792350600777 -0.6200067342075642
56 54 8 3.828794986162468 -6.431324063597726 -1.6308662942227268
57 54 8 3.7721109291202835 -5.453125208907146 -0.37747028407392974
58 54 8 2.557344184272708 -5.831149479118523 0.8042508578112483
59 54 8 3.384276743551459 -6.888925358717164 1.3373665288495613
60 54 8 1.5597424307089525 -6.55415856411059 2.3104137048151294
61 54 8 0.5697806093242656 -5.242583963148411 2.260234865876211
62 54 8 0.06344704869158202 -4.874030721973552 3.35017931953416
1007 68 4 -1.0658639733591415 -10.69000046203635 7.563643505001376
64 27 8 -0.42890516299052533 -6.889711276000808 0.7874586878478519
65 27 8 -0.7528869100587742 -6.460325986331786 1.8836821556606385
66 27 8 -1.8817374424488758 -5.992866050714202 2.1681895088055843
67 27 8 -1.0500963054902566 -5.202538898152981 2.3805139131757036
68 27 8 -1.957775233279992 -5.52119407534698 3.7802801569478435
69 27 8 -1.3122596588967428 -4.383561439617859 3.8645442891201385
70 27 8 -0.6728155464549036 -4.9017050832760924 5.104489427619489
1036 68 4 -2.164329310960423 -4.9131777920290425 5.89847824653158
72 68 5 0.01575444539376824 -0.9047805777144191 1.1534135047104395
1009 68 4 -0.9993662356335583 -3.4445212690040834 8.361335218750545
74 56 8 -2.7625432234117344 1.946227218174568 1.218479358817899
75 56 8 -2.4952753118005746 1.082710910424105 2.1288307301452094
76 56 8 -1.9119203642974876 -0.038847592324196545 2.2668335586897106
77 56 8 -2.765395450324297 -1.03943711678068 1.1338586945946378
1074 68 4 -4.970256544328161 -0.22883905463879772 0.09830641376523097
1037 68 4 -3.420433847645868 2.647023088670718 8.020573083888209
1017 68 5 -7.9618548796258315 1.0603375193190867 6.267150946033086
81 59 8 -4.271140580240101 2.6664198672913253 2.593671127423379
82 59 8 -3.8195551013495295 4.15446561413655 3.746040271875759
83 59 8 -2.5349042238516026 4.129972800822356 3.6684382792091506
84 59 8 -0.4848756242605791 3.7103364273393598 2.6373365573522034
85 59 8 0.2731150593813223 4.5750568975327885 3.2951193421714993
1079 68 5 2.8469148643737743 1.956212901004011 0.8910464227757314
87 62 7 3.544376537090233 2.530018040994714 3.155517206103359
88 62 7 1.7968479278349152 2.4208325777090933 3.7870179813620086
89 62 7 1.9311017774844732 1.0414553212215716 2.422045762365494
90 62 7 2.1453805284831806 0.10246890932663208 1.4538655533438996
91 62 7 2.2435177548625336 -1.5625821346541366 2.0594654961269
92 62 7 1.7178653308183012 -2.2799481974418137 1.3071633970165017
1044 68 4 -0.5488761231889425 -2.3845345737533443 -2.4309506809715247
94 58 7 -0.0630962824397646 1.7992060567793944 -1.0833023806785014
95 58 7 -1.0091410416391027 1.6038072680241602 -0.9794087753299298
96 58 7 -1.3705605370227019 -0.39687113492087134 -1.85412056956378
97 58 7 -2.801868270266147 -0.1538783592919071 -1.085462309512858
98 58 7 -3.419828951957464 -1.3969123169353386 -1.8426416638992176
99 3 8 2.378681981036849 -8.907541497130468 0.8030075826738217
100 3 8 1.3218678061518936 -9.500994599366754 0.40091192520552577
101 3 8 0.28814146048340794 -9.124509128550436 1.8116295012393435
102 3 8 -1.2566747507561136 -9.066738327915541 2.4979038564638323
103 3 8 -2.4652557262303447 -8.26140677360946 1.7322185384789042
104 3 8 -2.6056928599377116 -7.550518607831182 0.7405271240478741
105 3 8 -1.9216591577783138 -6.996294637955465 -0.3150298598161517
106 3 8 -1.6937269419023802 -8.286270818985678 0.0378541863989981
107 3 8 -2.751881907538652 -8.322191890316086 -0.2997388349527142
108 3 8 -4.101787945174062 -8.963306745361198 -0.9774407071293958
109 3 8 -5.246778449339907 -10.42996098682861 -1.5088307656032658
110 3 8 -6.384356224037639 -9.549865653752283 -2.13815485469718
111 3 8 -5.459966735172962 -8.577677485307927 -1.6153982212962736
112 3 8 -5.830409266930483 -9.619369894200332 -0.7947815136422185
113 3 8 -6.795545836344458 -10.386262986975561 -1.1817365873937962
1024 68 5 -3.809147872809922 -11.316883362570993 -1.4971351180502657
115 44 8 -6.06342914350868 -10.380328307135958 1.1025115974862822
116 44 8 -5.251407729527967 -10.00957392619931 1.7376122973589614
117 44 8 -4.372028113889033 -8.21555756420884 2.4799723583416933
118 44 8 -5.485291904879831 -8.425266249989413 1.8024956111316666
119 44 8 -4.308503630193825 -9.822915937362472 0.9463219393670487
120 44 8 -3.7012958315684577 -8.853391016265336 1.6760288043617524
121 44 8 -3.4342289580425645 -7.364015718751084 2.1748933646062247
122 44 8 -3.50781908860284 -7.937544472534301 3.430231844273748
123 44 8 -3.283664962175075 -8.992723432882965 3.987304886845926
124 44 8 -1.4296510851323754 -9.265793314675786 3.6247224741512287
125 44 8 -3.2140576230166777 -8.869886389997243 2.858798682184266
126 44 8 -2.3978152347340544 -10.071882038092607 2.532856180194013
127 44 8 -3.291164507558846 -10.948957684292697 2.7775601194114743
128 44 8 -4.502622630094128 -10.685068067039014 2.2157308721432067
129 44 8 -5.764552085104756 -11.041657321205035 2.3724237839334212
130 44 8 -7.122450723121573 -10.984984067524696 1.7336987469024585
131 44 8 -6.510141937800817 -12.638118651585067 0.8160628036508051
132 44 8 -7.3662773636226495 -12.260283121575906 2.639548639892326
1097 68 10 -8.418154146287693 -13.030081203034806 2.613342681776706
1084 68 4 -9.665863843388667 -14.309703666846332 1.5761993869244197
1025 68 5 -6.084005753072741 -14.272751329943844 -5.3392208177913485
136 42 7 -6.507943030866813 -16.95306380162438 -0.8963470781542912
137 42 7 -6.124746540663126 -17.86255627157075 -1.773243685422924
138 42 7 -5.251827124780256 -15.927053031146539 -1.3715582635990375
139 42 7 -4.2428375522766295 -16.90403278131884 -0.419162293174281
140 42 7 -1.9923420731198629 -15.955795797161374 -0.7398044972556269
141 42 7 -2.1230284737943856 -15.86394192072183 0.8906376320750697
142 42 7 -1.400189170220132 -14.122403453219183 1.975110424370985
143 42 7 -2.4379820508271286 -13.246573938764465 1.6929243720508838
144 42 7 -4.005761042014138 -13.897879561648775 2.7445802543348017
145 42 7 -4.530204706052805 -13.882918076301433 1.736384615603855
146 42 7 -4.917720220426841 -12.738761185583753 1.7569414985283036
147 42 7 -4.828923181589433 -11.973987135066608 2.598811375101907
148 4 8 -0.3210647521987741 11.129190715827754 17.839314062284508
149 4 8 -0.15213898899729547 11.859018172173252 18.920301726129697
150 4 8 0.2584191636410851 12.091538488199213 20.51186049000422
151 4 8 0.36246775730379527 10.7550573971424 20.019832914784928
152 4 8 -1.3123191839065187 10.210089988539986 18.95012227031917
153 4 8 -1.7527872324151983 10.165745065372404 20.229378070056065
154 4 8 -3.0691021129420237 9.143134814170542 19.86606974294807
155 4 8 -3.016499502712522 9.564265251007948 18.831744004182227
156 4 8 -2.9703106425564045 9.693176857654045 17.8139838598706
157 4 8 -2.6833149187652423 9.050960382015312 16.68107623929111
158 4 8 -2.9982674016792057 8.218292826972535 18.23208520729506
159 4 8 -2.7012468487349706 7.232949916140867 19.221395822565228
160 4 8 -2.602415497167092 7.181857547721938 20.378007364438865
161 4 8 -3.6001964036390657 5.4279215898541855 20.05126073391879
162 4 8 -2.4467761866133513 6.2103579610826865 19.952784862683
163 4 8 -2.7571887341127628 4.894750143905304 20.449697346177445
164 4 8 -4.348646097035817 4.3074700737844305 20.27317498451798
165 4 8 -3.0375108848893664 4.440871664149513 21.513330234984778
1031 68 4 -4.3670984936473785 7.05674707268085 19.176918855069935
167 68 4 -3.2598609753949073 8.254148788928656 22.2487279054143
1043 68 5 -2.48461138092801 4.416164267488052 23.969668065555595
169 63 8 -4.028735671925163 3.3845580082641744 24.048804856026504
170 63 8 -4.250715961573055 4.529752025690746 23.656329797365718
171 63 8 -4.4724552374697115 2.336683732527854 23.54919457492356
172 63 8 -5.041597023677989 1.1936801424194055 22.566863770794303
173 63 8 -5.072126954464782 1.362972985578177 23.78469661086961
174 63 8 -4.015489151709395 0.5461653390135282 24.638614552189676
175 63 8 -5.419039223804373 0.3305650076626685 25.135698371634703
176 63 8 -4.7773506531937935 -0.5247926947681527 24.737793628713426
177 63 8 -4.523601583479819 -0.6467013477827229 26.4237824837984
178 63 8 -3.2577720708562716 0.7170039248481266 26.31251107897014
179 63 8 -2.537482466975118 0.3461512718244266 27.394049715153585
180 63 8 -1.4514208889538553 0.051378525573278495 27.329267220372675
181 63 8 -1.1467306573564149 0.005022663626576015 28.475824450792278
182 63 8 -1.6022105668577205 -1.429199485933141 28.40990050766023
183 63 8 0.491616933536735 -1.5858880554200896 28.71344534098861
184 63 7 -0.14880964318823448 0.18187217754198462 28.349468373624312
1028 68 7 1.5713056949702373 0.0045932012502720165 26.752528753219295
1023 68 5 3.7823155361524856 -1.090277481801086 25.487869053743
187 31 7 1.561675076569031 -1.129900046616082 24.86650786706665
1091 68 9 0.9516682005917402 -2.321655010162578 24.563344155612388
189 31 7 -0.4132050191983973 -3.054353242747945 23.10982612985997
190 31 7 -1.6662154673482705 -1.635333062641057 24.227174824133574
191 31 7 -1.5345436054041308 -2.6659480522402355 22.77165760824483
192 31 7 -2.7561053674387015 -3.648450477861388 23.825341444554976
193 31 7 -3.3071332892463787 -4.836235567261872 23.627185726774307
194 31 7 -4.42252252105744 -6.3818587586578825 22.597440636216565
195 31 7 -2.690811966478983 -6.660164287197425 22.774821911505157
196 31 7 -2.2907943789440663 -5.855294735709174 21.430127876014666
197 5 8 2.78271291480117 -2.752438283766194 13.338477587912655
198 5 8 2.9604433725609343 -3.4976603570533027 12.555157989043591
199 5 8 4.250982471513162 -3.179371165698615 12.017265454444965
200 5 8 2.4121475082384713 -4.268282618440527 13.456853857780342
201 5 8 1.4763024143547716 -2.895578061981043 13.418053201803666
202 5 8 1.2400061822371853 -2.011639951960478 14.409061024459671
203 5 8 0.8963519152600836 -3.119793481530971 15.64222177139567
204 5 8 2.0218269889291225 -3.8354546666656306 16.186475941216695
205 5 8 2.5865487736587727 -2.5036930857841697 16.268112566869824
206 5 8 2.0695956734342698 -3.194175537189261 17.32764155105874
207 5 8 3.5423098506993425 -3.291076346043154 17.02608961483542
1056 68 5 3.0535222508745052 -7.779129521833613 15.89230148828768
209 65 8 5.412956303301525 -2.5958698599868546 16.739912185477706
210 65 8 5.061486716575042 -4.448462473982157 15.42788699766688
211 65 8 6.028736023182783 -3.200598449241805 14.695280673537871
212 65 8 5.388159488130653 -3.312584574660663 12.509612013267503
213 65 8 6.4621074487578865 -3.5403214820892197 12.251017745447285
214 65 8 6.700022643260117 -1.6990423278180242 11.739412783068211
1080 68 10 6.192667718734865 -2.793625667514017 11.456347002387982
1019 68 4 6.5945042025806515 0.7046451452813984 12.094832736168387
217 30 8 6.706886381111161 1.7148060099170792 8.112962708628656
218 30 8 6.041432855560583 0.23676261946884145 8.738033368849877
219 30 8 7.606928882457802 0.33150720071295875 8.774052633638332
220 30 8 7.237180904521507 0.9639757496123815 9.625804258989719
221 30 8 7.135462938042643 -0.8079366076167771 10.428147246502725
222 30 8 8.057507704389055 0.1319671545391143 10.295910223020652
223 30 8 8.464114391445614 -0.4570689931017437 9.413178557984548
224 30 8 8.396481148158616 0.4703970925781922 7.579529344375123
225 30 8 7.019260148216203 0.5435725810078011 7.474967128595406
226 30 8 8.279786738403399 0.8627600035337837 6.0572049372609555
227 30 8 7.299321124293886 0.9039275566587607 5.284698315577462
228 30 8 7.047375008492436 1.9164548079986075 4.2755479626871224
229 30 8 8.080748875428664 2.0572579199215073 4.112965687660746
1054 68 10 9.397987464735994 0.9880000109678012 5.088538138885773
1076 68 10 9.65412510207597 1.753101053936245 5.698626436547512
232 30 8 11.079123440061354 0.7771387603117574 6.427432346843139
233 30 7 10.470697848681516 0.6999032337331222 5.5232862459614065
234 30 7 10.021229975053314 -1.6474565342533707 4.717916224509786
235 30 7 11.083661120797046 -2.3115524224298003 3.7780970571223738
236 30 7 10.980998194893475 -3.1280140995110606 3.012812952806688
237 30 7 9.239093454114247 -4.343534596653558 3.160268501124579
238 30 7 8.632029783633522 -4.534892640914001 2.0503841382462764
239 30 7 6.322835513730524 -4.712286213647655 1.4433911599061024
240 30 7 5.990102169739533 -3.8698413444407853 2.961019439935633
241 30 7 6.687384490024031 -2.322599696750557 2.7821530765223783
242 30 7 7.845488813164138 -3.566183152007942 3.294629590438326
243 30 7 8.65508002915437 -2.703280334747325 1.8751617506949325
244 30 7 8.746112679687787 -1.5405516133213086 2.164180586910371
1090 68 9 8.801005820890467 -0.23407850092218632 3.1767379308981285
246 68 5 -0.8995657096960493 4.376261681595716 4.736382690015246
1052 68 5 -2.5382228500328377 2.518877311029505 5.4980561244948865
248 32 8 -4.96697479803297 2.8921132921606576 5.936813095318179
249 32 8 -3.4326673205074494 1.759721914938251 5.393746116885607
250 32 8 -2.804659618037559 2.0642930956805357 4.064237499333095
251 32 8 -1.4276302975574526 1.5546211233221658 3.873329388968972
252 32 8 -1.4121107307047303 2.6782199359121295 4.699678623611779
253 32 8 -2.1010604380062836 3.5392214817473975 5.828075216163926
254 32 8 -1.9147948227028215 3.7492749428694125 6.9802767293054275
1071 68 10 -2.992132641172085 4.626763517759973 6.930448877048909
256 32 8 -3.649920729727225 4.467774499580696 5.865279000134756
257 32 8 -3.6273853714458957 3.1318125264199406 7.045299097381213
258 32 8 -4.067116324781004 5.349921841293789 7.9831351975643345
259 32 8 -4.515069936764198 6.287340728044688 8.522850419927474
260 32 8 -4.798340795078451 4.723802020568249 10.19278010730328
261 32 8 -4.363150175818511 3.641769014047777 9.425762274303883
262 32 8 -3.4887971639533006 2.242495430781605 10.070837899332192
1069 68 10 -4.453236224567846 2.5871779267104715 10.302678162199776
264 32 8 -5.419709745152563 2.5288561615921354 11.550297043167292
265 32 8 -4.221438964382901 2.2834688766509577 12.359668409345133
266 32 8 -3.2907145325201754 1.743955205952854 11.037772287882
267 32 8 -1.8859437860530568 1.0379672558257682 10.80192105819105
268 32 8 -0.6753579353917326 -0.22220195716293262 10.736153839236271
1034 68 4 -6.593654385946598 -0.6237140363177497 10.913837703922571
270 46 8 -4.590506995674488 -0.12055480649389941 14.209804538154362
271 46 8 -5.793997113831347 -1.5671986545049004 15.294418916340248
272 46 8 -4.566188772974661 -1.9531683378419955 14.632939642822626
273 46 8 -5.144513160212036 -3.730277631552845 14.463596981992143
274 46 8 -4.812621300504257 -3.6965695418775018 13.06927482277258
275 46 8 -5.4081695679467465 -4.0515067580289035 11.491778068274634
276 46 8 -5.0786043376809795 -4.528724187652731 12.49977612969921
1047 68 5 -3.841521711501892 -1.7790728659805752 11.14180405322573
1012 68 4 -4.275662263486921 -1.9851338025820733 6.459469580205683
1026 68 4 -7.759210254033156 -6.76524550446156 9.934730507734479
280 50 8 -7.296800354101379 -0.7522759920770956 8.354099064546897
281 50 8 -6.291688861244167 -1.2260152713658512 8.362829529071789
1075 68 4 -5.766498086986292 2.0151630900838136 9.250148748072592
1078 68 9 -4.253032907159553 -4.582418040112009 7.60407639895925
284 64 7 -4.988414003210072 -5.330538591083396 7.134325722926655
285 64 7 -5.130309126669036 -4.149919460209748 5.553741535012042
286 64 7 -5.675579865490999 -3.397798099053756 4.448945268571488
287 64 7 -5.73090507976771 -1.5297805908646618 5.122648208447088
288 64 7 -6.457012503327286 -3.463906577466858 5.6334042033913
289 64 7 -7.531614801263085 -4.427196217510126 5.520297428974969
290 64 7 -8.906943738992938 -3.837888544373598 4.975984351896568
291 64 7 -10.339866066366188 -4.378624135977451 5.058143583889938
292 64 7 -10.929236706033423 -3.6107468089508727 4.222053276100557
293 64 7 -11.778222323188093 -2.9110829465145476 4.687141377175048
294 64 7 -12.723449933402408 -3.1725011008992188 3.6730499262082668
295 7 8 0.4402691227890778 13.30545426666915 5.7868286791098145
296 7 8 2.05466427469675 13.147296685241239 5.735080241199507
297 7 8 0.9946329063040799 14.642054598845649 6.950800492449912
298 7 8 -0.41913612881751894 15.84136043557484 7.745095273405792
299 7 8 -0.2984875525089323 14.501645728479954 7.421646834508714
300 7 8 0.3280464195569528 12.518583412904473 7.667890034554299
301 7 8 -0.38425965639646464 13.457247279789941 8.579543394447562
302 7 8 -0.7720930182262964 14.070969654166799 9.411594221717625
303 7 8 -0.7301249237299365 12.801592871154615 10.020185120658363
304 7 8 0.3381724364941766 13.932604473097749 9.054395744351947
305 7 8 1.184637617376212 13.482292243795696 8.476484050308379
306 7 8 0.07936543750631286 12.558193403071872 9.395383265304002
307 7 8 1.632370158260691 12.339278944888296 9.88890551267606
308 7 8 2.7233770840425318 11.575540613635422 9.359001473779394
309 7 8 3.675930459914605 11.181227262703006 9.739659175895023
310 7 8 3.822039007724977 11.046425776843579 11.584451357122049
311 7 8 3.087049448222845 11.854588736250486 10.563520685101844
1011 68 5 6.852049516521751 8.325130169482323 5.068387579766781
313 45 8 2.953546583053275 8.317311428122613 8.935737157286463
314 45 8 3.529577818555714 7.66981768453009 9.75991385838709
315 45 8 4.205705906488101 6.735242316070689 9.47283499895542
316 45 8 3.898310109605022 5.358235015930596 9.69410462881735
317 45 8 3.9444548879993393 4.442660250467517 8.843968091823776
318 45 8 3.6119498306221876 2.5561945385157894 8.983720196983585
319 45 8 4.3503338363109325 2.5731029172502344 7.683471740927066
320 45 8 3.921240855012362 1.1484175940759087 8.182644850176334
321 45 8 3.4193012959272457 0.04097242092703392 6.349403565728758
322 45 8 2.7662906348326617 1.0304936468109946 6.123984382805417
323 45 8 2.2663292633799528 2.9940305805225718 6.286805165267321
324 45 8 1.531245337294715 4.407043515351673 7.938656135388068
325 45 8 0.3887744532909328 5.175047909711332 9.329123876083845
326 45 8 -0.7553453806750455 4.877458803778865 8.56619623551151
1064 68 5 0.24077224602135144 5.3206506468416 4.764437855268845
1088 68 8 -1.1937239168872977 1.7129309782008515 6.939762515097295
329 49 8 -0.9458580970429232 2.5861443317105413 8.112458487431013
330 49 8 -2.3660524401383 2.2409453978951714 8.605787091253973
331 49 7 -1.7964322563040194 1.007441021744575 9.263155298751013
332 49 7 -1.249493168940444 2.3849260863011783 9.581668168391145
333 49 7 -0.4209859325463951 3.3854538044102562 10.102030582820328
334 49 7 0.6539497413483324 3.621357648762881 10.282029331822873
335 49 7 0.7346465861001098 3.175358739943091 11.889161577496091
336 49 7 2.0457900402081104 4.743909146076121 12.945769173929147
337 49 7 1.4360213992709412 4.1042654031769 13.936208765298113
338 49 7 0.027276958167208907 4.813469003134066 14.548052204849906
339 49 7 0.03144916369784381 5.033601701715994 15.655212191469161
340 49 7 1.0867485286164174 5.7076192554392975 16.698166655001646
341 49 7 -0.46654968077290204 5.430290688515306 17.60323076176204
342 49 7 0.22868025629318534 5.994449562007447 18.32150458317355
343 49 7 0.21177147408017535 7.047140201567297 20.281286467623044
344 8 8 7.46458764405078 19.161614526901886 -8.905683291408485
345 8 8 8.553940151670421 17.88030174813604 -7.906361253284049
346 8 8 8.012342818980477 18.151150197278675 -8.800384543066352
347 8 8 7.15796309567321 16.4215821532442 -8.329703741752551
348 8 8 7.803482204321736 17.017301350835243 -7.061524034948691
349 8 8 7.791376855669924 15.188679953040252 -6.957238857991545
350 8 8 7.289922060412499 14.067530491241653 -8.198731263411773
351 8 8 6.789250354015712 13.701567514457787 -9.046986504328647
352 8 8 6.962042361804683 14.861968326353614 -9.63548943620322
353 8 8 8.199551954868678 14.115895038363465 -10.721649493500067
354 8 8 7.237641881690111 14.069522998843953 -11.598001751769308
355 8 8 7.262619418063239 13.170095271136633 -13.61001433286617
356 8 8 7.140846968617613 11.720305271021498 -13.480463163878323
357 8 8 6.786319370531971 11.354176993911905 -12.38639402160859
358 8 8 7.759277120430516 10.574123996296953 -13.640271932709629
359 8 8 8.365601542277751 10.134564516668478 -12.477492806657718
1057 68 8 8.728447038310383 7.209872827395552 -11.04636323039073
1048 68 5 8.325412649021342 8.483303958909772 -10.932340776822263
1066 68 4 11.332726565138637 6.4234253196122335 -11.302148398118971
1051 68 5 13.842004481901515 7.343915357202698 -12.228015526575836
1077 68 5 7.163296980440081 2.739993332379608 -11.503517685351662
1063 68 4 9.956817831432481 0.9634133173871717 -9.7814662323001
366 35 8 9.264138208865385 1.8908524942221387 -11.15752290881219
367 35 8 9.21094220440913 1.4506781415815473 -12.218519044680354
368 35 8 8.71932321486478 1.6055553170142989 -14.35067334545305
369 35 8 7.670222919712885 2.985834196986849 -13.354522940511737
370 35 8 6.984611722337214 2.064218894416993 -13.03788793921362
1038 68 5 11.384633746145456 9.660579871237527 -13.28416774998513
1035 68 5 15.231174531068538 8.279609681048806 -18.896749296960476
1083 68 10 14.01642054793486 5.2063172866055005 -18.742490947049145
374 43 8 12.405135459666939 6.114807329590678 -17.16277020264235
375 43 8 11.117424884897755 5.249182998841698 -17.32346992188793
376 43 8 11.382562718659509 3.848280842697399 -16.468166540388058
377 43 8 12.668946901488358 4.1383281862729575 -17.199982694688767
378 43 8 12.832657178643741 3.307997436808171 -18.569241404842852
379 43 8 13.35378936848326 2.4019884757764824 -18.492428348786383
380 43 7 11.616150973952367 2.4092795806717033 -18.139028999100553
381 43 7 11.828106116096864 2.6115496822081847 -19.55320721084791
382 43 7 11.30648417513722 1.3999387440087947 -20.433596618666954
383 43 7 11.603591569943024 0.245384609419538 -20.519054794512865
384 43 7 12.394992929185133 -1.2042791862830722 -20.709629933460683
385 43 7 12.704556285610286 -0.1724778347739429 -21.686445739874657
386 43 7 13.962226998274149 -0.7117525674779255 -21.51163071710069
387 43 7 14.777672836559246 -1.4421022926999179 -20.993795135024392
388 43 7 15.834272216769737 -0.9748755818897966 -21.995547862826488
389 43 7 16.517031190584564 -2.3147557599293216 -23.394535900223254
390 43 7 17.15537622451011 -1.9128343040268891 -22.58792838481341
391 43 7 18.172966532785452 -0.27993998773371087 -22.31713222031166
392 43 7 19.002259298653822 -1.4626920966583952 -22.683954836983343
393 9 8 -4.824281248161003 -3.7552684441607473 -16.639332427902207
394 9 8 -4.998675529258649 -2.3710999914409183 -15.699020332118764
395 9 8 -5.573803639463266 -3.3379650013475493 -14.644613452488395
396 9 8 -5.935051901231057 -4.016126075942753 -13.328128643287693
397 9 8 -7.117054765892642 -4.148874347429608 -14.13694328400655
398 9 8 -9.135796302675045 -4.045749403600772 -14.019816078119028
399 9 8 -9.423669778472252 -3.002711561940199 -14.716108821492975
400 9 8 -8.224300911226015 -3.126841312169909 -13.966846471518066
401 9 8 -6.902619268571714 -1.9585667836528615 -14.19557591079655
402 9 8 -6.191908713572144 -2.046442018069063 -13.21443276618891
403 9 8 -4.783899074787902 -2.3275629584828814 -13.727144625489652
404 9 8 -4.829066927551028 -1.0843834985833052 -13.517386620541469
405 9 8 -5.252091229919717 -0.6978615155280803 -12.118535703802959
406 9 8 -6.739113079186746 -1.540870686659552 -11.321950111014278
407 9 8 -8.104209195902893 -1.4552486841940464 -10.64895538289822
408 9 8 -9.326957730615586 -2.340197449803097 -10.509279215629618
1010 68 4 -2.6534963800583284 0.12485211902490922 -10.223675554676445
1022 68 4 -7.65813898130065 3.6840814748227224 -7.047256869311235
1016 68 4 -6.9270715296748 4.476098479268127 -6.792279089702481
1029 68 4 -1.1940955923593715 -1.5885486369069413 -7.194653791854875
413 52 8 -4.457273793022839 -1.9183087106889893 -9.7165367749694
414 52 8 -4.528290945947893 -1.927873581755087 -8.27696410552372
415 52 8 -3.2280714935987245 -1.5627749241511188 -7.851689725769155
416 52 8 -3.856443304002545 0.2661981724050749 -6.919722628647835
1021 68 5 -7.989198493607866 5.233612781519853 -8.951064205142226
418 33 8 -8.541024519232153 -1.1437279416443595 -8.469336398551997
419 33 8 -8.603218988743 -0.8321125896194465 -6.9116432816965165
420 33 8 -8.606851267044831 -1.153557792768885 -5.179520760228503
421 33 8 -9.591822771476119 -1.825826018882452 -5.295561735068746
422 33 8 -8.6546361080222 -1.8948949983563506 -6.929729234768835
423 33 8 -10.0252449047472 -2.0202392544589727 -6.409317563622592
424 33 8 -11.125958580497905 -3.409294696090687 -6.959763785623806
425 33 8 -10.277070589221175 -4.040562980607235 -5.557869288500685
426 33 8 -10.158424925990124 -5.628738556243559 -5.2436034661121385
427 33 8 -10.518481429175775 -4.737437931004418 -6.360407612933775
428 33 8 -12.092608039251195 -5.537205416719626 -6.4241590227662115
429 33 7 -12.86473688644453 -5.386770627972972 -7.742727338763784
430 33 7 -13.41700275652524 -6.139242600033818 -6.716480847258546
431 33 7 -12.806503577899706 -5.788136534066018 -5.464228242151706
432 33 7 -13.178154240983815 -6.9285906136328945 -4.927680253943798
433 33 7 -13.207078030973951 -8.312376184820243 -5.232620002720771
434 33 7 -13.254247919071277 -9.275897249816154 -6.157915978695716
435 33 7 -13.495939778431918 -9.872347899179035 -7.638990815095577
436 33 7 -14.670321249500487 -9.281259368989115 -8.559341021035747
437 33 7 -15.30036225799991 -7.851936926826259 -8.536033454578986
438 33 7 -15.451961867070212 -9.467053288612977 -7.59370441164083
439 33 7 -14.841765266530711 -8.67380855773399 -7.0216846050220125
440 33 7 -16.027030993916526 -8.718776348493462 -6.4354476428680725
441 33 7 -15.238515711580845 -9.320405857257189 -5.529500722036039
442 10 8 -1.470536620029212 17.481796530870863 1.4218182501429155
443 10 8 -2.5419948756395483 17.90234711487595 2.0488135549164377
444 10 8 -3.2676134382526816 16.931948592455516 1.7982448737659886
445 10 8 -5.027066870330453 16.608724199982134 0.8010418279983208
446 10 8 -4.7542598658937525 15.311365857950753 -0.12881344615280782
447 10 8 -4.989447717989029 14.915728207832716 -1.4617824093133527
448 10 8 -4.593140864247778 14.396644209592445 -2.3723911778298654
1082 68 10 -4.45606255374106 14.754607930369223 -3.882301605775454
1093 68 10 -2.9552590901912055 14.480816576702686 -4.663633119404563
451 10 8 -2.7409087675159665 13.486638877999738 -3.032917835853868
452 10 8 -1.9211878643853046 13.132984886432315 -1.6082527329390974
453 10 8 -1.8511639610222967 11.783213483236533 -0.10495244970015215