# Generated from readdy-to-lammps

1005 atoms
596 bonds

10 atom types
1 bond types

-30.0 30.0 xlo xhi
-30.0 30.0 ylo yhi
-30.0 30.0 zlo zhi

Masses

1 1.0
2 1.0
3 1.0
4 1.0
5 1.0
6 1.0
7 1.0
8 1.0
9 1.0
10 1.0

Atoms

1 1 8 -14.938086840214797 -8.908168408758833 -8.532825113115997
2 1 8 -14.481529800205008 -8.012726600382205 -9.262909630445002
3 1 8 -13.550678355222823 -8.234565147560886 -10.181015473091392
4 1 8 -12.728968368147958 -9.56008404940141 -10.90945455643808
5 1 8 -11.75307922587112 -9.818739660250952 -11.741203798889677
6 1 8 -12.251210792536828 -8.394548683071116 -11.806345976031873
7 1 8 -11.706043033750191 -7.539430000409744 -11.822849376070897
8 1 8 -10.330717795484885 -6.57640740070919 -12.67400947990902
9 1 8 -10.729256312893943 -5.226613830553318 -12.7790913664217
10 1 8 -10.493408817610865 -3.932114308929529 -12.599075025319305
11 1 8 -9.68055442393971 -4.390930361603165 -13.241211233672205
12 1 8 -9.164735281226845 -5.345279285493292 -14.618555197623547
13 1 8 -8.641442262989006 -4.859547945968479 -13.142505260394753
14 1 8 -8.42532718157347 -6.73777004464056 -12.093097403038627
15 1 8 -7.2752039022800234 -7.498540333167022 -11.125787577656219
16 1 8 -6.440173189237144 -6.900533369324128 -10.016979682804644
17 1 8 -8.054245403534383 -7.12688724704012 -9.965387362397433
18 1 8 -8.391230607858155 -5.860193901965873 -10.042160461784444
19 1 8 -9.913487532365023 -6.6322734398251715 -9.84638424675079
20 1 8 -9.370349673212525 -5.140933190527194 -9.691551594935662
21 1 8 -8.572509376271132 -6.356449991337772 -8.797393919102662
22 1 8 -7.8090491855793 -7.352986690906981 -7.941853353157798
23 1 8 -6.9847349980558775 -8.693953925240114 -7.586764633772084
24 1 8 -6.4801964053402425 -11.063831329514215 -8.205854414232618
25 1 8 -5.75938590692049 -10.095340368285218 -8.9892253546262
26 1 8 -5.823289696008542 -9.414541880163112 -7.845310691993767
27 1 8 -5.828361049783232 -8.496148674984077 -7.1672745388853585
28 1 8 -6.703095877444092 -7.843640660207129 -8.293473160328222
29 1 8 -7.163128742211812 -8.360156154746463 -9.09364248230611
30 1 8 -5.896716628602074 -9.248619288747843 -9.802267916365697
31 1 8 -5.840246377027422 -7.962267683706008 -10.536396708104528
32 1 8 -5.265004421554149 -8.380518445147425 -8.908915866617644
33 1 8 -4.323380188544961 -8.789820584089622 -10.056580407610507
34 1 8 -3.28313497711221 -8.120717171035968 -10.42813686329895
35 1 8 -2.1081091506117513 -8.102380428657833 -10.107869874944164
36 1 8 -1.2079544242794236 -9.47419970209308 -9.621938004463432
37 1 7 -0.9847192471330628 -10.144203787656343 -10.433304252543142
38 1 7 -2.152146556787048 -9.497942137381038 -11.200998253274777
39 1 7 -3.2123146873846395 -8.796333620650447 -11.794591889305803
40 1 7 -3.9733779178037185 -7.6212328057011085 -12.799359959440416
41 1 7 -4.19784241902222 -9.033907940963994 -11.659555422357995
42 1 7 -5.7421132550657195 -7.9286207621993805 -11.866725571650152
43 1 7 -5.91779208180857 -6.270990839070491 -12.153321897551372
44 1 7 -4.74044191358911 -6.20726423088268 -13.140886091445614
45 1 7 -3.675009377898372 -4.868517704262165 -12.928716305966635
46 1 7 -2.5412038807292556 -4.856462792921531 -11.894789658126069
47 1 7 -2.681895694998362 -4.700249372359221 -13.092323952604636
48 1 7 -1.5246784459586251 -3.380597237396334 -13.907178995441305
49 1 7 -0.5865181552213684 -3.003283540775246 -12.342407487498388
1050 76 4 -2.5000968654257942 -1.3120844890911967 1.875669121652395
51 76 5 1.740524506062465 -3.3006694196005095 -8.642383510041409
1046 76 5 1.9037713179145266 -5.1056231266650265 -0.0366693918425386
53 76 5 -2.921678556691865 -4.958320740591526 0.1941060064940721
1042 76 5 5.4219095854923145 -2.9108285921887385 -2.331704856801644
55 52 8 4.703507390746263 -4.924260447921486 0.036089160806467534
56 52 8 3.5067642928796614 -4.444452362186913 0.8882598542454445
57 52 8 2.637016788946873 -5.088680710007278 1.3899935688496214
58 52 8 1.4900389816217139 -6.622429178319828 0.6456594721765312
59 52 8 2.703037393859462 -6.965341554667203 1.6013638586784853
60 52 8 1.9296664364320837 -6.04364226241565 2.3815253890424426
61 52 8 0.4177739966232057 -6.980419552906062 1.2379007203952535
62 52 8 0.45519112341449497 -5.430742636316957 2.2176507074621834
1007 76 4 -1.075170039063109 -10.039445772810238 7.742156645374163
64 26 8 -0.195230451170562 -6.222992083202532 0.022329977441748333
65 26 8 0.4561031033066982 -5.027201150553262 1.1819865920719688
66 26 8 -0.5123365152667768 -6.412724800745325 1.4235443475739078
67 26 8 -0.8787933694197901 -4.933531551780705 2.224827380908114
68 26 8 -0.31734680642919394 -4.936536461277208 3.6783354802987667
69 26 8 0.2625259450754187 -5.171354814017993 4.658395853233242
70 26 8 0.3440710643514867 -3.96272856627289 4.840098676017668
1036 76 4 -4.291150740475443 -4.841331512443281 5.193647024629827
72 76 5 -1.2596024208264776 -0.5465526681922073 0.9008598398647135
1009 76 4 -0.6996046572119428 -2.8255263528933123 9.973828981725646
1104 76 10 -1.8326428795708811 0.2386258115268428 0.37888906242157
75 54 8 -3.350708069210233 0.08835987255911167 1.3428012714349526
76 54 8 -2.2870898269291082 -0.32174860890704493 1.224144599050894
77 54 8 -2.8089673905122843 -1.2038612189225513 0.8511591664207195
1074 76 4 -5.525632672196541 0.9246092858333991 1.6180530101677106
1037 76 4 -4.367184720348719 4.579581418592479 8.13428505843749
1017 76 5 -5.924064460379457 2.2661569270372994 5.77041919032455
81 57 8 -4.513420571513762 4.366626707440544 3.0066323566896327
82 57 8 -3.5558934904831765 3.9620176899988873 3.8778831944562704
83 57 8 -2.9538188395369276 3.256997106221045 2.523121613741571
84 57 8 -1.0705834077751513 2.700734147740901 3.3010981856453654
85 57 8 -0.1927571170688497 3.6952519559716945 3.702415738745715
1079 76 5 3.6670111803807908 2.162708677964613 -0.15913424590631847
87 63 7 3.593684439369242 1.2013481828265178 2.8076271829584463
88 63 7 3.114621152306438 0.08896870250755357 2.079303180757774
89 63 7 1.3797433913848511 -0.41064257755369465 2.9020889685095264
90 63 7 0.7476165003716999 -0.980416321315956 1.4162268783249548
91 63 7 1.937554486896185 -1.120650182500717 1.3324746000137069
92 63 7 1.424554561036168 -2.320782468251291 2.1370979850070513
1044 76 4 -1.1655647943311007 -2.0947415189373095 -1.966876169559442
94 56 7 -0.08409436816934393 1.9728984989874176 -1.931776774523027
95 56 7 -0.8677894489710697 0.8373859635857593 -1.0037495932490519
96 56 7 -1.4463808859200062 -0.10942099246129172 -1.7695257167047587
97 56 7 -3.1530345685687666 -1.245966524131061 -1.8406645476385317
98 56 7 -2.5428929423236957 -2.092655183522192 -0.7035086780598669
99 3 8 1.401545655480124 -8.753836046385693 0.6509078227715679
100 3 8 0.18110748334386928 -8.341870342672737 0.6954353168828201
101 3 8 0.1888487942510594 -9.564954708795256 1.4530887016235599
102 3 8 -1.1447168578371163 -9.039998230217625 2.167570887237412
103 3 8 -1.6187065813514245 -8.27732498484276 0.7191588125198112
104 3 8 -2.8097738452704757 -7.295885093516489 0.3264097586778554
105 3 8 -1.956093403695183 -7.595032130431817 -1.115772630324597
106 3 8 -3.2576707553593574 -8.834291825259353 -0.3967393605100899
1107 76 10 -4.892565331953237 -9.77037706093297 -0.28928777591830096
108 3 8 -5.097671613204637 -9.164205489522828 -1.7954202848604883
1110 76 10 -5.575320799020792 -9.868420999887801 -3.1019872711549943
110 3 8 -6.30738846433287 -7.9375208078589035 -2.9632763370473887
111 3 8 -6.44586987268101 -7.927746645987258 -1.7871354246002866
112 3 8 -6.207461274845456 -8.186663832765023 -0.5662978360012361
1111 76 10 -6.9626463219934465 -9.311103077061734 -1.279282841917291
1024 76 5 -4.152867201177845 -10.8927679491193 -3.080460135482807
115 42 8 -7.456976974467151 -9.378338867393188 3.568821177189052
116 42 8 -5.369845457384486 -9.23577092295352 3.7928668386932793
117 42 8 -5.516204138615797 -8.252994039159212 2.462557871929636
118 42 8 -4.889221016240925 -8.507718542540514 1.1390910048534255
119 42 8 -3.707726788920958 -8.464935497043106 0.7594684039309141
120 42 8 -3.8985703157658773 -7.8146268925377855 1.7810591125460353
121 42 8 -2.74717494001669 -7.820350811271493 2.876707217460164
122 42 8 -2.8946689208595813 -9.152718938773877 2.809399069158179
123 42 8 -2.319163913480033 -9.135939391949922 4.121332363181368
124 42 8 -1.1362922965330473 -9.406265932694042 4.0131321983282575
125 42 8 -1.9311664289365984 -10.256287599044871 2.1344197579805235
126 42 8 -3.8411167492570564 -9.590886068167567 2.9354650686357475
127 42 8 -4.856523372219678 -10.759255231908021 2.5830393126671387
128 42 8 -5.661884659359949 -11.459968848365486 3.197832643567941
129 42 8 -6.375501204155701 -11.323997765650779 2.472338848476172
130 42 8 -5.604768478906775 -12.99334217925483 2.3431703015089465
131 42 8 -6.321705388207093 -13.929726733874775 3.5799808701219096
132 42 8 -6.503849087339176 -13.679595452118251 2.4122022111540726
1097 76 4 -6.240285107668475 -15.21550226743915 3.6709110944896226
1084 76 4 -9.124865057726973 -12.984159188457527 1.4661120490709485
1025 76 5 -6.269249804120204 -11.168982583034627 -4.386557167922958
136 40 7 -6.4974960550606475 -16.668788534343395 -0.05981573127287618
137 40 7 -5.87062424367922 -15.858373433597716 -1.6407015977582822
138 40 7 -4.821306359965822 -16.2734754138535 -0.9387637657464574
139 40 7 -3.602728828154035 -15.829722469391317 -1.4096770004822152
140 40 7 -2.6439789693364806 -15.689692818622332 -1.7769587869379386
141 40 7 -2.078981865984082 -16.22560793045255 -0.38918793957133774
142 40 7 -1.0235151627036994 -15.092310389952635 0.8359103506337985
143 40 7 -2.512463811501161 -14.897256477423369 2.1957719189678264
144 40 7 -4.329041313762749 -13.873409639062347 3.0611939395913925
145 40 7 -3.7887639656414973 -15.02090411157075 2.0177483140338017
146 40 7 -3.6565127773696657 -13.40621121000272 2.0050164430721242
147 40 7 -2.6311989140918315 -13.669270479109041 2.9671012095055915
148 4 8 -1.188474979187096 10.127764483546862 18.63916827222073
149 4 8 -1.1922999553098292 11.185674224933383 19.205759952496294
150 4 8 -1.2738061563332623 11.267302805550838 21.22110244313222
151 4 8 -0.7977985000769389 10.291202661391091 21.558754237613325
152 4 8 -2.0391834201489036 11.37920530091678 20.245135977384958
153 4 8 -1.8398188451848758 9.772948018297903 20.53791766768127
154 4 8 -3.075316420569368 10.053358975603716 20.20115230118082
155 4 8 -2.356337720639489 9.199654129857239 18.97703930615639
156 4 8 -3.5988317824238867 9.124311951890851 17.786092659588167
157 4 8 -2.3214952420416184 9.417858630827677 17.816667262873565
158 4 8 -2.8378780382395044 7.965746157766025 17.71853394998923
159 4 8 -3.778447281535196 8.332556743239795 18.908018833829985
160 4 8 -4.094671898384381 7.249587514008824 19.636554904690122
161 4 8 -3.7959689453522665 5.702654972809827 20.997204656109368
162 4 8 -3.3003809355337146 6.844328416780457 21.09351663380166
163 4 8 -2.7297644295207517 5.101842131952554 20.99085633914577
164 4 8 -3.3045454504660667 3.5889548683036576 20.715446028388502
165 4 8 -2.1524864006682205 2.255065193946352 21.501493404719604
1031 76 4 -5.330111214415624 8.763552658855046 17.008983938012552
167 76 4 -2.972355651594585 6.989391606992443 23.05835108213617
1043 76 5 -3.9923947669044666 3.5094593714936386 25.055330794092452
169 64 8 -4.25838326432583 2.9823194867576204 24.051043138558374
170 64 8 -5.56764701930066 3.362890782124593 23.558071982678847
171 64 8 -5.510151363844492 2.033829004558477 23.60290310093079
172 64 8 -5.17302418232661 1.4526941583424096 22.335541454761863
173 64 8 -6.356727114238509 0.8135102662033988 22.64705306140383
174 64 8 -4.753451188385228 0.021240562014839405 23.219241505956354
175 64 8 -5.197573905967557 -0.40633831774804 24.5488371368353
176 64 8 -4.225514975184865 -1.5223626045043548 24.12385287861305
177 64 8 -4.011669634343526 -2.22580826614852 25.987331115308866
178 64 8 -2.9380940378704996 -1.5194521577889761 26.68913641746046
179 64 8 -2.748228205951453 -0.3745494357156907 26.87170700055567
180 64 8 -1.8594200151867364 0.12526660736177428 27.880495203944722
181 64 8 -2.1757904278488542 -1.057051706934695 28.454924854436
1106 76 10 -1.420081786387249 -1.5706851205606627 27.728036753787745
1108 76 10 -1.3402488429693233 -2.6508059703811115 28.486250036070587
184 64 7 -1.2447759761520538 -1.5580407354821122 29.366094320586
1028 76 5 -0.3696061044433323 0.1179776548945536 29.647870160556536
1023 76 5 6.848719696744191 1.2713641809308491 26.232977123094503
187 29 7 2.0029242659061106 -1.1732741757085363 23.93654212395186
1091 76 9 0.9757009706608226 -2.5672512370381355 25.09574016227577
189 29 7 0.14170098951075039 -3.066248236544135 23.557224675248893
190 29 7 -1.2314333645310191 -2.557304015715034 23.18354069298799
191 29 7 -2.217332823010689 -2.9890622357527827 23.970392569952974
192 29 7 -1.4046151574894583 -4.264547156711612 24.70764652301105
193 29 7 -3.249787054737738 -4.3173266452281585 24.11763987866097
194 29 7 -4.565024941927814 -4.715774500982416 22.982054538291937
195 29 7 -3.7932733019120253 -5.347333409247217 21.84223463514117
196 29 7 -2.267418055019972 -5.581087685974251 22.126089146140632
197 5 8 2.9254091169533187 -2.286061785569362 11.421002911960741
198 5 8 3.18091369532781 -1.7895764226456636 12.766919436325482
199 5 8 2.9289976147300427 -3.342443687583799 14.04570697595792
200 5 8 1.9906284861089576 -3.8153210697023536 13.598081536486038
201 5 8 1.2438290561913632 -2.327550286763515 13.662632656029595
202 5 8 0.13410239230560392 -2.390477525401627 14.863785377333668
203 5 8 0.48000527223034695 -3.2252594696964163 15.68850346585952
204 5 8 1.3320437953042878 -3.834056097851023 17.375831332185285
205 5 8 1.3504291314238652 -2.6403591024913973 17.68663218546847
206 5 8 3.0858739906836843 -3.0246669380777282 18.0096605076821
207 5 8 4.389021052311179 -3.539469424424006 16.893766458201444
1056 76 5 3.8217636075830748 -8.094466368554624 16.380318016780762
209 68 8 4.975886269518892 -2.892598792324048 15.251908732822397
210 68 8 5.766096671678155 -4.046000155931892 15.26383542871429
211 68 8 5.894639775128577 -3.9068379156331003 13.953856631991599
212 68 8 5.760601155687219 -3.9298643583735835 12.812024875284191
213 68 8 7.436044012157084 -3.496108848695322 13.265093244660141
214 68 8 6.9409215593977915 -3.306860586227809 12.120844832438605
1080 76 10 6.35938787829503 -2.9726441387252995 11.025961724140506
1019 76 4 5.413251145107736 0.0364506936839661 13.927188785470127
217 28 8 6.0574336089708325 1.6293792242791325 8.597708038565331
218 28 8 5.642508288259365 -0.4425189984145089 8.283898215705504
219 28 8 5.673348694636746 -0.6754922564451775 10.307538559345955
220 28 8 5.869597900686654 0.19893688921938546 10.785923768282343
221 28 8 6.760215575020071 -1.5163930394514886 10.289388150880532
222 28 8 7.951576613894953 -0.5973624668114333 10.534479352865745
223 28 8 8.78278541714094 -1.1383897774051432 9.554222777112944
224 28 8 9.394184097095902 -0.6383472093725597 7.854257774883365
225 28 8 9.36487023942068 0.33593691326380215 6.216351398133968
226 28 8 7.9863991329549044 0.9999705746105498 6.024518322676968
227 28 8 7.122771117071706 0.740910070336751 4.05551002481459
228 28 8 8.64412603292217 1.2040394777223384 3.7104715255674052
229 28 8 8.754866129259222 0.4161223849444863 4.662217935745468
1054 76 10 9.004619174222624 -0.35207942790172597 5.307543621780799
1076 76 10 11.134318618045436 -0.3562357480829843 5.543810240688264
232 28 8 11.870386359110096 -1.1136575718968333 7.511968694249881
233 28 7 11.305581518851865 -0.7631481890330982 6.5920781910943616
234 28 7 10.035627995076041 -1.4042886580533533 6.698740458929976
235 28 7 9.925973544003995 -1.8553619383260072 5.553194405085699
236 28 7 10.218391524890972 -1.7879481584411838 4.004255010620632
237 28 7 9.919191156537527 -3.1823151732360926 2.9806807066917194
238 28 7 9.013926445645046 -4.460583919115205 2.3921118493670557
239 28 7 7.979208362699899 -3.578037817548414 1.5694040723027818
240 28 7 6.6386681699915195 -4.049797468570292 1.3407343095923079
241 28 7 5.98217839129229 -3.0565363333599245 2.6649806924881863
242 28 7 7.025888192844435 -2.0980895013915664 2.683909011238193
243 28 7 7.374721678153586 -1.0684755384736144 1.3189777017159081
244 28 7 7.891355547533889 -0.6639657566203419 2.546505983341748
1090 76 9 7.083444094503893 0.10709078311805291 2.661847038875706
246 76 5 -2.231042058068182 4.007195281090811 2.9138513414436282
1052 76 5 -2.35369905680747 4.785689557905132 3.9938927705675216
248 30 8 -3.429162534165342 3.0273653895694292 5.490791234863052
249 30 8 -4.620069517733488 3.202366259927236 3.870514941897814
250 30 8 -3.4683738116981297 2.239406652278047 4.33772738570207
251 30 8 -2.347415364971316 2.5965203118464855 4.51499253709939
252 30 8 -1.588451008631529 3.439458055929574 5.373537563034266
1109 76 4 -2.0839319276073818 3.752490792016756 6.741356722789853
254 75 8 -1.4649200948667531 3.8942814329437656 8.092602046811397
1071 76 8 -3.7260679186291616 0.909045068236061 8.441747765402747
256 65 8 -4.789152027136786 4.431225675026137 6.0373154031868665
257 65 8 -5.490398707642309 5.216316786076193 7.160942810846079
258 65 8 -4.968767656253003 5.345958014570773 8.86665279008723
259 65 8 -4.383336144762247 4.753097608579589 10.024019988869123
260 65 8 -3.8605142293274093 5.0033130095567255 11.47604144978373
261 65 8 -3.928027982469767 3.564961101295571 10.508270247651081
262 65 8 -2.9936864908380696 3.7901389550007774 11.225099706535625
1069 76 4 -4.7323568334269845 1.4961775743904275 8.656607097672248
264 58 8 -4.527513008767907 1.7413700032528046 11.28760090459654
265 58 8 -3.9963020826934392 1.4775410549459953 12.636092774516097
266 58 8 -3.097991309524915 1.5899422904339293 11.346688461578367
267 58 8 -2.8255014639800695 0.6589412795585399 10.899695990022012
268 58 8 -1.7802587340430016 1.31362590382093 10.793633193730555
1034 76 4 -7.0364151551665355 -2.2810956139645673 12.105770989813875
270 45 8 -6.043895312710392 -1.0039821593571938 15.08403040305726
271 45 8 -5.588423885192535 -2.162684408853965 15.195560044710309
272 45 8 -4.4516242209002845 -3.4327191703549595 15.757100217528336
273 45 8 -5.406003516760804 -3.3775158323189514 15.275235671830325
274 45 8 -4.593408147346108 -4.701410966679472 13.720299498712263
275 45 8 -4.186489181287023 -4.392676589671258 12.759710997675295
276 45 8 -2.656889878061176 -4.908458443606837 11.307625365119394
1047 76 5 -5.247616068649038 -0.8901233258734899 11.410947897608748
1012 76 4 -5.278390790141553 -2.637484771403798 6.661716770518639
1026 76 4 -9.635897641811411 -7.295556184520013 9.962908662624256
280 48 8 -7.9175436088141815 0.10680385772485436 7.056024700232271
281 48 8 -6.0070358230928145 -0.1037930510396111 6.356296814321104
1075 76 4 -4.689755256921401 3.9321951837029 9.415012385515494
1078 76 5 -4.66998048977627 -5.003159911334833 8.19219684011727
284 61 7 -5.474985914877399 -3.892708765460279 6.511798186321661
285 61 7 -4.006691408406179 -3.1449811906994127 6.464324897892466
1100 76 5 -6.787501386849084 -5.521327740649871 4.120435936263929
1099 76 5 -7.666675938488659 -0.5869029308352732 4.356497769980578
288 67 7 -6.370295099828864 -2.5945235954210495 4.693800863049261
289 67 7 -7.5994507103619915 -3.671806263097353 5.913438202296638
290 67 7 -8.793656957725249 -4.197435012311723 5.324088307165804
291 67 7 -9.548038880521352 -4.225359713974328 6.193523959276211
292 67 7 -11.32572703049093 -3.007310081465986 5.868945426202463
293 67 7 -12.668768361696632 -2.932540834512106 5.354955793568558
294 67 7 -12.521344561283293 -3.1768876579404997 3.866546190582434
295 7 8 1.590545179752431 12.897622457865342 4.92313583801136
296 7 8 0.01096280024838502 13.663135851845563 5.132056594697573
297 7 8 0.8947373032033664 14.275199934228523 5.93667220794663
298 7 8 -0.4934717218565014 14.848804708377246 7.195295653359591
299 7 8 0.6556914425846913 15.306825672773106 7.534524961187464
300 7 8 0.4465459420890255 13.963840840275775 7.682798959073937
301 7 8 0.013064560405977352 12.809347406659779 7.799781135115787
302 7 8 -0.1900351839851814 12.156705922435174 9.21751155952472
303 7 8 0.6147320100140069 12.856104637173981 10.709785534319238
304 7 8 1.5276525609004268 12.344756635690372 9.723818515010656
305 7 8 0.9512768676789273 13.208256531755499 8.850128910117055
306 7 8 0.5753499251992127 11.53613661575994 8.618316568236136
307 7 8 1.7112166536307039 11.54919798170721 8.704494692638855
308 7 8 2.785232065623935 11.839455760082583 8.742883644694768
309 7 8 3.1799163450663888 10.908038164903154 10.02549461303424
310 7 8 3.9876964887148763 11.564875581453151 9.43041781399672
311 7 8 2.0564161440995083 11.072644131495316 9.602695444347585
1011 76 5 6.753592250673276 6.93148497033898 4.1533928004375165
313 43 8 5.7742064381533496 7.279475328933816 8.686054705354353
314 43 8 3.947475331640822 7.1097882846549485 8.71430885681654
315 43 8 4.239531028372779 6.088897208357094 9.5098986285205
316 43 8 4.81064496598577 5.465774479132731 8.614720403054186
317 43 8 3.7592948138971423 5.272612313135729 8.954451509070356
318 43 8 2.9732580733193537 4.454817093527258 8.65849625068824
319 43 8 3.2847091805527917 2.3033273077420406 8.409545556641994
320 43 8 4.020232557204612 2.1097589882273624 7.387916624962003
321 43 8 3.6697295491146527 1.2200302806576675 7.20143481016432
322 43 8 1.545830330405743 1.7638313862411865 7.6071764259519865
323 43 8 2.210376380366711 2.646773899610888 7.477100056246935
324 43 8 0.6896460095458951 3.7860024884523313 8.068931300988153
325 43 8 0.14257827822207728 4.854910667909495 8.538843332935272
326 43 8 0.8712462631378912 5.2983020461097 10.014585831256579
1064 76 5 -0.24573342600771517 3.8365795562641973 5.616852515811193
1088 76 4 -2.324313232467735 0.6963264911640421 5.581481528758877
329 47 8 -1.077281247008097 2.1241036919907224 7.728553730276138
330 47 8 -1.4835080270664989 1.2833760395093632 7.091630378991645
331 47 7 0.5294507789528804 2.1797912418712904 8.11901049440631
332 47 7 -0.15965026130537122 2.5170986483614266 9.654546324073296
333 47 7 0.35464931027453317 4.097822515238722 9.757665487645623
334 47 7 -0.1839265025594548 4.26371603363954 11.257433826874063
335 47 7 1.1136608564141672 4.542174855140935 12.574106478618875
336 47 7 0.122288306862351 3.9722891055511327 12.55411025516729
337 47 7 0.5641184383683454 4.535499623428835 13.727539776724067
338 47 7 0.5196874379261437 5.230727711720802 15.176247424364576
339 47 7 1.307425853196681 5.258551859770447 16.285156219781424
340 47 7 0.633982022809813 6.009468256746814 17.34537556351677
341 47 7 1.4383466220650059 5.179525326311411 18.463226775528334
342 47 7 1.1867370099636365 6.230232859013485 19.39557678052579
343 47 7 1.8759796112077436 6.634282854347405 18.298859988300105
344 8 8 7.710251591137593 17.743643862113224 -8.241478349443884
345 8 8 7.837658428091338 17.079498690175377 -9.090803678122189
346 8 8 7.246654240234873 16.79966955739564 -8.095090161342718
347 8 8 7.824714904609032 16.14779360824611 -7.012145099973726
348 8 8 6.574649801348766 16.235621507770755 -6.9525733419587965
349 8 8 7.3250983066442625 15.46300774996145 -8.077857598848674
350 8 8 7.259212658572898 13.542854881625486 -8.79680238736894
351 8 8 7.42967967894324 14.447360522807692 -9.679232149636874
352 8 8 7.169988665663688 14.708347604763624 -10.76601597442418
353 8 8 6.76544437301746 13.705338433584664 -11.414165481141405
354 8 8 7.715112038392976 14.149771057658473 -11.486023273332135
355 8 8 6.702665990423556 13.3161525242344 -12.557165012590225
356 8 8 8.061872956746502 12.960419425936218 -12.984088271365868
357 8 8 7.282757037549399 11.179955695849943 -13.201795709000933
358 8 8 8.249614038321424 10.453531971975176 -13.09957129727691
359 8 8 9.200647509378085 11.490516183946841 -13.313528350585461
1057 76 5 9.270699973620797 9.20249214253418 -13.371142971368075
1048 76 5 9.518002361154078 9.502494854930639 -11.88542810797144
1066 76 4 10.65216860490994 8.5422624074953 -10.167329517329613
1051 76 5 15.278570550054152 9.036739269049715 -11.968272777860504
1077 76 5 6.150340585757169 2.911983167371496 -13.673731266228431
1063 76 4 8.780962321179551 1.6287616473246753 -10.816128338249552
366 33 8 8.24618962095114 2.682772690501068 -12.045317301898912
367 33 8 8.399616492551711 3.4198934351512507 -13.448637693238124
368 33 8 8.590186976244654 2.1004108796460765 -13.44107662343756
369 33 8 7.609329765441936 1.2086527804808982 -13.704726059174826
370 33 8 6.13032686224251 1.2361728242767438 -14.274966214453242
1038 76 5 12.611531628179272 10.212586287232455 -15.122910353401975
1035 76 5 14.55218857268584 7.441596674433858 -22.211299575255815
1083 76 4 12.938650673338278 5.47002461087326 -19.246263555438876
374 41 8 12.022201728340546 5.550187687271506 -16.823991137237506
375 41 8 11.604524044420172 6.163906265320555 -16.188377431360642
376 41 8 10.810255995351259 5.126950705889481 -16.818722004135374
377 41 8 11.114195434790522 4.484716118102457 -18.308016059790447
378 41 8 12.376678708251752 3.459601144598594 -18.044156921129094
379 41 8 13.530292678297293 2.1495058413627484 -18.065209527455565
380 41 7 11.619921218245393 1.400935533438968 -19.324783734010314
381 41 7 12.996715912718033 1.2864484527422766 -19.127054586602533
382 41 7 12.153406386092266 1.5193575062831757 -20.245674988417612
383 41 7 11.014393999000374 0.33610137694884357 -20.44933809499141
384 41 7 12.174176419931616 -0.6101988053722893 -19.28033233730437
385 41 7 12.830587302078776 -0.5027965384097528 -21.268520091943707
386 41 7 12.738344140562022 0.41927572733874685 -22.546587942600404
387 41 7 14.874706227779368 0.0884949687019132 -22.905958759956558
388 41 7 15.675783522410427 0.22790850301467513 -22.32897743375279
389 41 7 16.05195987028408 0.19516872196888402 -24.168156955950906
390 41 7 17.134392449784723 1.0377275817334657 -23.833137689175224
391 41 7 18.556375513821322 0.1123254528924848 -22.917883036731805
392 41 7 18.258179786721254 -1.0142608935989355 -23.583315424746345
393 9 8 -3.840335404167019 -3.609346203979439 -15.915062635510457
394 9 8 -5.135067257208299 -2.233382507201779 -15.818262821714722
395 9 8 -5.431892901029078 -2.3572426169590597 -14.217159610985656
396 9 8 -6.560407335541479 -4.159319406519623 -13.57368897581619
397 9 8 -8.101966229897773 -3.155764742750484 -13.566131810757948
398 9 8 -9.14604232684963 -3.2667022593087505 -13.305534210277386
399 9 8 -8.412616772087162 -3.911403349395242 -14.828346929607198
400 9 8 -7.891080562116421 -2.014565506915186 -14.960345644433675
401 9 8 -7.246091938995796 -2.61005636859086 -14.273941130334219
402 9 8 -6.368613900466147 -1.547810805982132 -14.543372905514836
403 9 8 -6.5637364116657935 -2.063238578958566 -13.28577526610799
404 9 8 -5.500375645790027 -2.530545829424009 -12.351199963140589
405 9 8 -5.114023101413467 -1.375076364434858 -11.528863787732769
406 9 8 -6.97453376737436 -1.997552438391137 -10.941759023737925
407 9 8 -8.702679454494168 -1.8709050560237253 -11.165275184298158
408 9 8 -9.932619182911447 -1.4533504760005005 -9.949690193265395
1010 76 4 -2.9758149956357944 1.491754855612688 -10.086402923382431
1022 76 4 -7.6361132045226014 2.513144636005153 -5.88581621115758
1016 76 4 -7.018532553795957 3.58783657303275 -5.819445418528876
1029 76 4 -2.5099210686474875 -0.12524639963177076 -4.776618709097569
413 50 8 -6.379832281503112 -0.9438120572632935 -8.889310642494996
414 50 8 -5.680390723321047 -1.2744475381558702 -8.14266463513329
415 50 8 -4.511807446773058 -1.671187376180763 -8.345959112186245
416 50 8 -4.566807263005084 -0.6230318302066369 -8.444396877331483
1021 76 5 -8.819698675162154 3.44883490738549 -7.793750149191681
418 31 8 -9.120429356549737 -2.2761784572417496 -7.135241256778566
419 31 8 -8.23373587890915 -1.3240683615614466 -6.665863954724035
420 31 8 -9.228420984945174 -1.4717883128327982 -5.321084237672988
421 31 8 -9.765312356501845 -1.6753780192355738 -6.5124491646330975
422 31 8 -9.98798391178972 -2.980254272132525 -7.291944073539584
423 31 8 -10.862647612314632 -2.009661857954802 -6.394086855478024
424 31 8 -11.663423579669 -2.5023577884240025 -5.250457017556814
425 31 8 -10.784840686647563 -3.7144856220548084 -5.928520803803849
426 31 8 -11.764391864535721 -4.0100387843754115 -5.629006932926349
427 31 8 -11.343513178153923 -4.857095789012576 -7.122638741191468
428 31 8 -12.117633094269028 -5.026716632512871 -8.091108666442269
429 31 7 -13.053013576317566 -6.026255798238801 -7.941526696903561
430 31 7 -13.466128039584346 -5.798571356245392 -6.251191738905866
431 31 7 -12.14839821030314 -5.427602335244545 -6.155272188782636
432 31 7 -12.726475142464013 -7.778375318341746 -5.621242317796614
433 31 7 -12.340353469890971 -8.941509293983735 -4.3461792211909085
434 31 7 -12.712310935836301 -10.23080619009745 -5.740238493124199
435 31 7 -13.687227613124312 -10.562614931189856 -6.296855889177155
436 31 7 -13.627843243223586 -9.423703821550022 -8.020220632605296
437 31 7 -14.572418742918305 -7.760002998650008 -8.138826632008357
438 31 7 -15.81611361266407 -6.933330048181337 -6.776868372580146
439 31 7 -14.703044333929476 -7.891645367861193 -7.028302332446931
440 31 7 -15.634202822369138 -8.738543647680721 -6.31101000727183
441 31 7 -17.001944860124297 -9.18351606362421 -5.699990496164236
442 10 8 -2.7195273710086973 18.758766785563306 1.8027060050764632
443 10 8 -2.2057703372255157 17.617782417632185 2.3731899994743695
444 10 8 -2.218056151365538 17.66532273714723 0.6770863912181654
445 10 8 -2.5342850229515643 16.80775117729832 0.0856784454114244
446 10 8 -3.440008516516184 17.3618984470587 -0.8069657378789309
447 10 8 -3.2508589693786085 16.561187913828796 -1.7208228291802314
448 10 8 -3.715763284937737 16.494899904621157 -2.7417459169055562
1082 76 10 -3.605090537234578 16.032706150563214 -4.29146144598183
1093 76 10 -2.906263626938305 14.337766132071112 -4.094179285382163
451 10 8 -1.3320849574377345 13.561300546548859 -2.9756307945091467
452 10 8 -1.3571846796109124 12.307724346805422 -1.6118305562950952
453 10 8 -1.923250676569483 11.421726764678366 -0.6365562016746767
454 10 8 -2.4997472454471907 11.484269670032566 0.6455657951549353