# Generated from readdy-to-lammps

1005 atoms
726 bonds

10 atom types
1 bond types

-30.0 30.0 xlo xhi
-30.0 30.0 ylo yhi
-30.0 30.0 zlo zhi

Masses

1 1.0
2 1.0
3 1.0
4 1.0
5 1.0
6 1.0
7 1.0
8 1.0
9 1.0
10 1.0

Atoms

1 1 8 -16.315420263281748 -9.452510493262068 -12.55165579966299
2 1 8 -15.553593709749077 -9.402908253551681 -13.41205028864045
3 1 8 -15.909856858953406 -9.685805525999735 -14.932452485060951
4 1 8 -14.369206574888096 -9.177183100349932 -14.162663392059835
5 1 8 -14.12863563208496 -8.252933309037918 -15.418253463900385
6 1 8 -13.025885683294192 -7.5331286872286185 -14.290627792573849
7 1 8 -12.403467252761079 -6.482905659320212 -14.678865724592233
8 1 8 -11.195864286565165 -5.53105533904499 -13.704690014340922
9 1 8 -12.371292038657959 -5.91766903095779 -13.115401836553877
10 1 8 -12.197146330557164 -5.386474812350396 -11.551339148725278
11 1 8 -11.132935866145584 -3.9746818690492054 -10.861619584055367
12 1 8 -10.411629010500542 -4.736084912477143 -11.618066424869589
13 1 8 -8.99424838224505 -5.654447485463873 -12.123329606204528
14 1 8 -7.999378600755353 -5.563242650965262 -12.217351564566581
15 1 8 -7.407668672102787 -4.591572470016333 -12.606754300732618
16 1 8 -7.245361183538454 -5.219627903279738 -13.416804813210826
17 1 8 -6.053797123626325 -4.942322079986168 -11.864690935129655
18 1 8 -6.854139660817147 -6.067459737719824 -11.48124602652732
19 1 8 -7.5229110436407 -7.426004482744174 -10.473962880929257
20 1 8 -8.981353697307593 -8.033588443373946 -9.885800847594748
21 1 8 -8.896161866119764 -9.641433293800171 -9.67460751422079
22 1 8 -7.744701847240291 -9.948561878225549 -9.599854205800778
23 1 8 -7.734830485720736 -8.74696320383969 -9.021048711303346
24 1 8 -7.4695933335407245 -8.620275805092863 -6.877228646392111
25 1 8 -7.116938272753166 -7.574757453131737 -7.113408821815983
26 1 8 -6.729573203517018 -6.406194743084966 -6.886362308874625
27 1 8 -5.830462987453214 -7.454468648534755 -6.583765888819324
28 1 8 -5.247935716263542 -6.586256323197758 -6.8294975387956764
29 1 8 -5.635440933559524 -7.540702614465189 -7.882866812518989
30 1 8 -4.607536932612536 -7.788233242613536 -8.5592352420799
31 1 8 -3.7538119341794745 -6.750676173660659 -9.208292338876184
32 1 8 -4.711943090094049 -6.2164257391199715 -10.545638733933995
33 1 8 -2.931726753040836 -5.620425932190787 -10.003312986051398
34 1 8 -1.6367701587396573 -6.005758425175845 -9.001800871446788
35 1 8 -0.45238159210310214 -5.814125070672361 -8.253929304154662
36 1 8 -0.8423633759595706 -6.077909933061021 -10.030320731355612
37 1 7 -0.19246859112030104 -7.018124930090818 -10.240450404125225
38 1 7 -0.21419315541053255 -7.736517538065381 -12.147225411246271
39 1 7 -1.6982504736717274 -7.599720114714862 -11.25684956915589
40 1 7 -2.727395695704261 -7.944991711855112 -12.011455736638693
41 1 7 -3.0349096590889526 -6.980785374628596 -10.721890271638319
42 1 7 -3.4504050600863185 -5.815516890021697 -11.171380717196895
43 1 7 -4.914215383804886 -6.265034470719064 -12.088908772269267
44 1 7 -4.291379688809754 -7.030101519328388 -13.665009691958787
45 1 7 -3.626279307548405 -6.233434972762923 -13.347336601943079
46 1 7 -2.7450291563682985 -5.229741587468767 -13.941398243538867
47 1 7 -2.2173020427521477 -3.6417910590907683 -14.061301335485195
48 1 7 -1.7726506138499574 -2.6554045193888847 -13.481687296238842
49 1 7 -1.3076308516424435 -1.5575002283590218 -14.073359429487532
50 2 8 1.844835075820495 -1.7943745407511884 -2.7153135034255174
51 2 8 1.3379221543690574 -1.4152424559492256 -1.9322041933113032
52 2 8 1.937872011989492 -2.6668999377155527 -1.3239926079053626
53 2 8 1.6901956827693356 -3.2376384512684915 -0.2853176811108839
54 2 8 1.5837487710741278 -4.840122590776671 -1.2837230898935699
55 2 8 0.6526390707863254 -4.658581621057348 0.16741579083862174
56 2 8 1.5095022638163307 -6.340591110916668 0.6836122486672545
57 2 8 0.6775585989037011 -5.64853245474544 0.8829971126350571
58 2 8 -0.22121507360478065 -6.114192216387358 2.4022731223678475
59 2 8 -0.5033960355205414 -5.230462523638074 3.3845424782534144
60 2 8 -0.5604132095179712 -4.278962408593678 3.8597238992011382
61 2 8 -1.0307428676232846 -3.872016064151135 4.73800180075221
62 2 8 -0.8638471641236706 -2.5312286505167685 4.766603649612406
1007 29 8 -2.026114099067983 -2.852527404864154 5.009489252912085
64 27 8 -2.159923424487101 -3.241237376728983 2.1884839442529707
65 27 8 -1.6619850591630878 -4.584817498957255 2.9729249953135213
66 27 8 -1.6882203670387372 -5.898366063241088 2.4548040024040647
67 27 8 -2.6293329704437105 -5.151864470554897 2.286526508079379
68 27 8 -3.584603530030192 -4.276281714034781 3.1205386840854112
69 27 8 -3.798794856443602 -3.7359470370643066 4.329406366784331
70 27 8 -3.2245220203960883 -2.0425565791820914 4.348464184009655
71 27 8 -1.9628314515919456 -1.4677816121983691 4.629306582178094
72 27 8 -1.6870246915320222 -0.05244873819504242 4.930967996743149
1009 29 10 -1.9816812763386547 -0.4772586496358909 3.5750526965119156
74 27 8 -1.1936518527591222 0.16007888557422356 3.1707388456614405
75 27 8 -2.306813244173693 -0.7073099384567059 1.7805880873142712
76 27 8 -3.5349651484341598 0.45767757253612007 2.075521997068007
77 27 8 -4.594026109999854 2.062326994220038 1.9089587150192857
78 27 8 -5.0379997083758745 1.334979584274908 3.2978565454105233
79 27 8 -5.570304378715769 0.24800966777738373 3.181153988124118
1017 29 10 -4.523294630167578 0.34755945171084024 3.4266785959867367
81 27 8 -3.954623827691963 1.7354949992066961 2.8762681123300022
82 27 8 -2.970570076136469 2.1497392864575224 2.1018608103567815
83 27 8 -1.9294350558846942 3.90138206820661 2.009190017166685
84 27 8 -1.9172275971035744 2.4681934808193047 1.6286961485877933
85 27 8 -2.6372831199700997 2.2447395569047215 3.3991424511661843
86 27 7 -0.8008249349918628 2.1914739299807238 2.7967279050591847
87 27 7 -0.5654517992712834 1.3559720284207026 2.151932820463869
88 27 7 0.7387148488661942 0.09299391942944372 1.9097862325470796
89 27 7 -0.1861989137444955 -1.4009052064434089 2.5132577508158134
90 27 7 0.4188331261672881 -1.4566777885772713 1.2398822479691514
91 27 7 1.68057642635701 -0.13792613654033606 0.1291795110761631
92 27 7 0.6297836142279684 0.09365467876326235 -0.45917988854594294
93 27 7 -1.1756986002167993 0.8657038910736272 0.2987692042799235
94 27 7 -1.8031993942657836 0.06643815346918434 0.7290588847467756
95 27 7 -1.082053844521831 -0.2276860915778597 -0.4928530532649028
96 27 7 -2.349354947298521 -0.8321571364544156 -0.8054279410801654
97 27 7 -0.5323312143869448 -2.5103935074446055 -0.9173093122894251
98 27 7 -1.7601363368631755 -2.382654068382523 0.017495994285250872
99 3 8 -1.7149438813946172 -8.065455187190603 -0.810222896464265
100 3 8 -2.3592966562668236 -8.695707521566304 0.9519549472389526
101 3 8 -1.771119508375526 -8.319958347630871 1.9181131769921458
102 3 8 -2.796181421547527 -7.398548802235569 2.3648528937268325
103 3 8 -3.0283256868893638 -7.774289711529194 1.1750905768590636
104 3 8 -3.6757338448026187 -6.552880844350736 1.871761551093755
105 3 8 -4.51270563705779 -6.210401715806038 -0.0754225649406846
106 3 8 -3.6185949856402897 -6.762690958147232 -2.204832044157234
107 3 8 -3.0333956909582085 -7.339330530376632 -3.3993333386308637
108 3 8 -3.2777695283490123 -7.951578268224747 -1.902353839820518
109 3 8 -2.581855398967085 -9.877168267162249 -1.5005513882472794
110 3 8 -4.0089127768654755 -9.581257901559477 -1.443470798358392
111 3 8 -5.279123959460273 -9.579051381098324 -1.4380081110263738
112 3 8 -4.716473782453649 -10.967911604955257 -0.4749440586698569
113 3 8 -5.7012097416539245 -11.228983625358861 0.8764738507444192
114 3 8 -4.777718160388032 -12.483542049479835 0.16132479836395955
115 3 8 -5.053182835422311 -11.984961281079975 1.2989883808660576
116 3 8 -4.739097676245645 -10.126546087515937 1.1387831223542293
117 3 8 -3.635720470863185 -9.589092865407629 1.864475787671829
118 3 8 -4.132049501522964 -9.133603518667408 0.4121118101551341
119 3 8 -5.014751092669421 -8.57502159726347 1.6448383134658295
120 3 8 -3.8571811276858483 -8.081582215717136 2.4484821246186854
121 3 8 -4.038186995919048 -7.313565668780083 3.1940405550570503
122 3 8 -4.715795569840863 -8.278788458384351 4.57031656724122
123 3 8 -3.3327180580911735 -8.674561474539749 5.591376858223313
124 3 8 -2.063132778981575 -8.318689608160758 5.321226803657971
125 3 8 -1.606516552728512 -8.182853696511392 3.8467249551555964
126 3 8 -1.0926226146293576 -9.258895505984638 2.821840684503063
127 3 8 -2.453313440731448 -9.804871583338329 2.9272482579329613
128 3 8 -2.0328374226776744 -10.454957437016244 4.580418707724406
129 3 8 -3.25106795788159 -10.888121459979534 3.77931518958869
130 3 8 -4.660704457759026 -12.096658120366373 3.762356996822684
131 3 8 -5.64971697235583 -13.160610627322828 3.4204398348760208
132 3 8 -6.390638676306159 -13.080878567893725 2.5871709752572483
133 3 8 -6.805184533407791 -13.858720252131008 2.0821511666990866
134 3 8 -5.614164059127481 -14.709999856043202 1.7028748947032675
135 3 7 -4.471306985854 -14.694746845981259 1.8866735378604798
136 3 7 -5.190067310537816 -16.134552408914093 1.4368399336730056
137 3 7 -4.908472243138288 -16.988659830033313 0.5402396934029645
138 3 7 -5.836065126371683 -17.70141152989348 -0.5186969239933111
139 3 7 -4.5187991096218845 -16.825779971079754 -1.0901664823878647
140 3 7 -2.945223720639746 -16.005266060144283 -1.3689812470701241
141 3 7 -3.245616812624344 -15.516802304960056 -0.06897765551030928
142 3 7 -3.8699714832757866 -14.887068626283053 0.5646247142846176
143 3 7 -3.0269562892198127 -15.074021628850353 1.852755043595819
144 3 7 -3.1852289295884173 -13.855736357873855 2.2849714923349267
145 3 7 -4.441408115052343 -14.220651963021796 3.3763788557468546
146 3 7 -3.519257792279372 -13.17834234143732 4.338977871773333
147 3 7 -3.9700916130264345 -12.168270717199432 5.689666881781992
148 4 8 1.2424560938794336 10.964160598551398 16.489197130820948
149 4 8 0.4200391066049068 11.617921778068721 17.233084547193243
150 4 8 -1.2021362714540256 11.632121060319562 17.387904371168315
151 4 8 -1.5668764736002754 10.647184838829052 18.92388696551283
152 4 8 -1.2822009304904105 9.698623664708958 18.005912889897733
153 4 8 -1.9984511383105297 9.936747401959247 16.10657392819663
154 4 8 -1.8943595611483808 10.440955363937558 17.392501972299186
155 4 8 -2.8617919968923795 9.954994574120848 17.94732321611273
156 4 8 -3.9165453433399873 8.195724660788814 17.353632561382895
157 4 8 -4.301846306166173 7.128548023608775 17.460881473483084
158 4 8 -3.1908674637497465 6.849265391918157 16.219909485452806
159 4 8 -2.3255140743757954 6.499221855514691 16.968520260564986
160 4 8 -2.1365187830157573 6.080302473277823 18.9765688544547
161 4 8 -1.0574829021719518 5.806865354333895 19.546025914331103
162 4 8 -1.7382029908706658 6.221938210384714 20.224241408514924
163 4 8 -3.191771465147548 5.767267404866626 21.108289810828555
164 4 8 -4.859905177073752 5.837295844956477 22.190046743483162
165 4 8 -5.529525711155759 6.9858404715117794 21.369542206060387
166 4 8 -6.243900753628908 7.994497016210918 21.523878652827594
167 4 8 -5.116864241132744 8.009542074235247 22.05316346818904
168 4 8 -5.583426723284205 6.626113697118558 22.370297599316363
169 4 8 -5.076720150447641 6.320259034580761 23.409891478507564
170 4 8 -5.251681458348504 6.0700103682319755 25.184302809980647
171 4 8 -5.519184731463643 4.489726953504746 25.337404548969403
172 4 8 -5.558333003536841 4.171301018389678 24.23744806623864
173 4 8 -3.7299947952184493 4.207912219150437 23.984726893600712
174 4 8 -4.337986542820784 3.2591809552250197 24.810125091876525
175 4 8 -4.113590212725615 0.914366820885288 25.046447093569046
176 4 8 -4.211725375030601 -0.08694011183118723 24.744803890062194
177 4 8 -4.924971356043571 -1.3376803107819584 25.143333635133914
178 4 8 -3.5584803916792107 -1.6177610003416374 26.174058447043244
179 4 8 -3.42784364244355 0.3647045126611374 26.498667390214425
180 4 8 -5.296084099980891 0.6246655238311458 27.895345482425284
181 4 8 -4.4382701628452805 -1.217538278729278 28.21744936385028
182 4 8 -2.747641073057444 -1.0203951108475284 27.38681040314284
183 4 8 -2.460834874413509 0.06740178849350828 27.33562883806052
184 4 7 -0.5087303303965593 -0.3586731985248856 27.002063134509477
185 4 7 1.1547493634501143 -0.10864126467382926 26.103554764240958
186 4 7 0.8801924771659176 -1.407522818187302 25.775955818303846
187 4 7 -0.44824409353957445 -1.309004697979725 24.875388687726115
188 4 7 -1.0246577988782166 -2.166708579767618 26.390746607304997
189 4 7 -1.398815018161235 -3.1344589023366436 25.151812498891115
190 4 7 -1.8301734092954725 -2.732420980583025 24.249977502644185
191 4 7 -1.5030148739924047 -3.3735057561249855 22.38405696265763
192 4 7 -2.0844593144347834 -4.244272342620545 21.364788161203677
193 4 7 -1.4969858935813838 -5.073814122288637 21.457589735440223
194 4 7 -2.7245200817154056 -5.439568950458753 22.827902833564604
195 4 7 -1.520595344736878 -6.339101302802067 22.73942118416094
196 4 7 -1.2305564223508854 -7.501923252392298 23.399481683968286
197 5 8 -0.5503115866092567 -4.975330161169172 13.201568161162008
198 5 8 -0.37819635730189655 -6.037318523463955 12.95327825300879
199 5 8 -1.0257298765632883 -4.377702643960535 13.972219472276736
200 5 8 0.3553487213064818 -4.058647162807601 13.33683735335838
201 5 8 1.1415462263949863 -3.15062425552476 14.819514532224037
202 5 8 1.611775247535953 -3.905339328325594 15.586295912626143
203 5 8 2.752878051765512 -3.914794440152303 15.878397214308224
204 5 8 4.513721604918586 -3.768136745394435 16.721279362243916
205 5 8 4.068266739450855 -2.7357142499099862 17.391094110658116
206 5 8 2.9476005316857434 -1.573256362587513 16.341460421328676
207 5 8 4.570200474098898 -1.8128440648989146 16.448321120645332
208 5 8 4.660313560527309 -2.2064804065446477 15.109587606864416
209 5 8 3.9740536849310466 -3.302864010287653 14.577161471258393
210 5 8 5.812705763090279 -3.2082705725616587 15.228019981684549
211 5 8 5.319231390553267 -2.7749565957567146 14.224038372536748
212 5 8 6.707420431633268 -2.9186517174086872 14.396242108345174
213 5 8 6.808517675062708 -1.6490392890003367 13.744861942514115
214 5 8 6.638405644215712 -0.5645093208596765 13.266818986009906
215 5 8 6.514242282357352 0.9911903795162754 11.93996475251246
1019 29 10 7.320497579484704 0.3261477005024645 11.23155785316867
217 5 8 6.4667424573452745 2.2259149820985287 11.553640348546852
218 5 8 6.313051837548255 1.4502237799928481 10.265367312174792
219 5 8 7.595020860213607 1.569949480776091 10.300175781144286
220 5 8 7.1952227205406025 1.5573775141293098 9.190346358905034
221 5 8 7.69278296257898 1.1285994191535647 7.789758727360923
222 5 8 7.731748257256001 0.14478106310091807 8.579974392894663
223 5 8 7.282329713463888 -0.5787678686513306 7.594251047310256
224 5 8 7.157934185612005 0.7640891461678591 6.872568372624963
225 5 8 7.581436410373572 0.26224885279457855 5.836575816292098
226 5 8 7.9070703040977515 0.8016885241806183 4.907866968447899
227 5 8 7.57634994697947 1.7726675057148116 4.482186845100363
228 5 8 8.908623169590767 2.5551406613496113 3.979803932800834
229 5 8 8.476187615184834 1.533470132808674 4.047074970934748
230 5 8 8.909202901388175 0.669320484645875 4.748796060861814
231 5 8 8.510562279179343 0.20336136173795133 3.894565553285713
232 5 8 8.099578032339352 -0.13163601647493048 2.2409800101187747
233 5 7 8.71978956722851 -1.1040657501330693 2.440664273569006
234 5 7 8.804725110700675 -2.3002363039648226 2.196272530119449
235 5 7 7.987841310149569 -3.3133459660015365 1.4262389144322705
236 5 7 9.004513619861413 -4.702572135515953 0.9162787328565302
237 5 7 8.184154267594126 -4.252373682954691 2.0197582012063484
238 5 7 6.963881558219076 -4.684462854213187 2.0629038236224786
239 5 7 5.626608378130461 -4.133097645449077 1.4550138876941145
240 5 7 5.335710244851337 -2.84389221447606 1.8934307738206047
241 5 7 5.469335352739537 -1.8147913344910962 2.0341467368008908
242 5 7 6.048287719874536 -3.262883936747675 2.63404617103237
243 5 7 6.665753696941708 -3.3063150789713407 3.685041168355603
244 5 7 7.963774446985442 -2.1101366185528776 3.3241973327646903
245 5 7 6.760364342320982 -2.1277655729199463 3.2945763226447173
246 6 8 -1.098425093129564 2.828593931797349 4.81820733072913
247 6 8 -1.155528745751167 4.016753191564513 4.817664526005353
248 6 8 -2.8113351027490374 3.6917622786753883 4.87580656564108
249 6 8 -3.2645516751469237 3.737727485502005 3.082455256342613
250 6 8 -2.364101731058333 4.9685947620628825 3.0008009137428875
251 6 8 -2.3509357668301054 4.184891494300862 3.860392519888436
252 6 8 -1.149023788420184 4.499986233793617 3.757662375624948
253 6 8 0.11683535076984247 4.372274779607255 5.2655002161538365
254 6 8 -0.9950186145115775 4.461053034797911 6.255349198178303
255 6 8 -2.4297093582126226 3.677255927304169 7.1285272802701884
256 6 8 -2.2998460839843005 5.185487778843615 7.714779549590949
257 6 8 -3.1061674190001676 6.567260514359884 7.06653977759997
258 6 8 -3.0909855136623388 5.876547640610775 7.8716609489059595
259 6 8 -4.088573264299348 5.767429380244738 8.037648775437976
260 6 8 -5.3445652476507455 6.662540929017913 8.990492801943713
261 6 8 -3.4374408755281736 6.006207511818151 9.190951102977259
262 6 8 -2.8589635620928107 4.684532390919572 8.886723375250853
263 6 8 -2.204470525119732 4.5370549840689725 10.50542551856388
264 6 8 -2.342707054190053 3.4501795327692526 9.393507280676756
265 6 8 -2.5069897828358014 2.253947462630338 10.041407498055419
266 6 8 -2.787202777554546 1.0644075660094992 10.903469695468106
267 6 8 -3.18395959582438 1.0907006448973458 11.97930042019977
268 6 8 -4.086679746988188 0.34700403896451876 11.126675453623406
269 6 8 -2.9183868752617106 -0.0022311128674183827 10.94861004633709
270 6 8 -2.8580261860346075 -1.3532510842622856 11.162902098556575
271 6 8 -2.8539435821997836 -1.5562319275373162 13.007731834920607
272 6 8 -4.156435550028734 -2.151592576693399 12.861126613179843
273 6 8 -4.672340655618307 -3.641536365317646 12.171704329180216
274 6 8 -3.545586852308827 -4.321861433205007 11.038595140973998
275 6 8 -3.6362857923625556 -2.843012536952168 10.177207109758905
276 6 8 -3.751482149458865 -2.3660199636851145 8.577744341872002
277 6 8 -2.644516334943789 -3.049943994362362 8.41510107982207
1012 29 10 -2.4453672777043263 -2.585919601454947 6.86208103364532
279 6 8 -3.485195066814652 -1.4598167502051933 7.00991661510534
280 6 8 -4.739615497705982 -2.342555392903491 6.698180281047517
281 6 8 -5.336832058169525 -2.4051494506910376 8.223999315448086
282 6 7 -4.500389119601472 -3.8848710379688662 8.04315455815807
283 6 7 -4.4678150953937825 -4.1739756329912545 7.030430648929992
284 6 7 -5.522940736024062 -3.4105831892416667 5.863130487066395
285 6 7 -6.185046691582127 -4.134674467689605 7.591593176368984
286 6 7 -7.413720277583529 -3.8055965566430183 7.481975833039217
287 6 7 -7.171072362041796 -4.55623208574656 6.398952219817343
288 6 7 -6.362253766085069 -5.385077678982725 5.515473514444459
289 6 7 -7.800865987923177 -6.322689386858194 5.28938230350054
290 6 7 -8.918013727542686 -6.527908534577734 6.4140747195709436
291 6 7 -8.898243983840997 -5.896263706706849 5.068044788454657
292 6 7 -8.596741225000239 -4.570184488754234 6.099391689955821
293 6 7 -7.863382595155952 -4.090337412107086 4.958664214760619
294 6 7 -8.751858814903155 -3.1466457314001812 4.805007695117666
295 7 8 3.71988034113393 13.778886310374649 6.306043250765296
296 7 8 4.268910769891956 13.152788791973062 7.122479348994058
297 7 8 3.6473629287764497 12.627849021093146 8.898171124336622
298 7 8 3.1218217426008206 13.151550644155371 8.215854019444308
299 7 8 2.2939369718810183 12.489601543254274 8.142388661436117
300 7 8 1.3523988060728926 13.441465018609668 8.423566651108946
301 7 8 0.02481591440985429 14.009630565194456 9.252348216489183
302 7 8 1.0760008798576155 13.669945904673044 10.2995440542921
303 7 8 1.2466175348727673 14.209482070420856 11.68228247318837
304 7 8 0.005595147053014336 13.82729545959843 10.211377325992284
305 7 8 1.2362276747986312 13.066169077955731 11.473321167016634
306 7 8 2.6767467791659283 11.476980207885426 12.090448543785412
307 7 8 1.7863798023080564 11.012953975222645 11.810999815345959
308 7 8 2.740762664170183 9.51335262342894 11.594784595497721
309 7 8 3.9006651769515335 9.928525135871157 10.730419664948313
310 7 8 4.110075396327315 10.24217044761934 9.172243760846465
311 7 8 4.413410654813267 9.78203741194303 7.721903737971761
1011 29 10 4.018750765788895 8.68123240948524 8.305462842477374
313 7 8 4.212511166683518 7.642514879455685 9.096442051897986
314 7 8 3.9437061091688967 7.1505082628218615 7.953990322424369
315 7 8 3.317605534858095 6.763265729674432 9.194215312753315
316 7 8 4.318427513542844 6.071589322637689 9.231076445025415
317 7 8 3.7121252066152333 5.301903726357266 8.220908814431736
318 7 8 2.072110575049717 4.810390175666739 7.42876488387415
319 7 8 2.803056184349634 3.5812949900633155 6.037653001015954
320 7 8 3.038571216548387 1.9990957465567525 5.948213949045103
321 7 8 1.8107342521855254 1.595601888732099 6.599625242427205
322 7 8 0.2535765266054673 0.7966771108742582 6.9599938334214
323 7 8 -0.5295361926439257 1.975916751228789 5.841588401095369
324 7 8 0.8826751063830661 2.2604595313027196 6.027373824297059
325 7 8 1.12540024069185 2.5918936419408003 7.8310335866643666
326 7 8 1.4284730603071762 3.9447483762316575 8.517899735047099
327 7 8 0.28569455094195084 5.241383982860593 7.876761211096741
328 7 8 -0.11466738026551729 4.181789575249999 8.734605529479536
329 7 8 -0.5565791098299068 2.6310021655198317 8.511136233349575
330 7 8 0.9733660257450033 2.1308313450064946 9.956871242246432
331 7 7 -0.40112998535874594 2.9703103856590483 10.952876155531856
332 7 7 0.2884466861357319 1.0510612623764861 10.050254859071897
333 7 7 0.3780968788219842 1.476409983093624 11.131768878016125
334 7 7 -0.20567104088976926 2.679994202799261 12.343667605364853
335 7 7 0.8073594563734153 2.3739757670332238 12.767291690850067
336 7 7 1.8118619584463884 3.34658762114181 13.83810855747991
337 7 7 0.4956734173707561 3.40632655024076 12.889830622653362
338 7 7 0.8341478290240213 4.063459585891008 11.795842884474272
339 7 7 1.2636552520506403 5.199286577350315 12.58868809042137
340 7 7 1.1006184254837088 4.863863127494489 14.348271862881798
341 7 7 1.8180466096731835 5.711678415978594 15.968879702703445
342 7 7 3.231675456337763 6.244716021277753 16.261081667448522
343 7 7 2.9402891828413096 5.0207480436375045 17.3697032510589
344 8 8 6.373994735004463 19.91628980695827 -10.14897673884218
345 8 8 6.561219560709121 18.351000461464995 -8.221899612608972
346 8 8 6.877095684402844 17.275486536509685 -8.297738389498274
347 8 8 5.982914384456339 16.700637855673286 -7.898746262639898
348 8 8 7.589258412467993 18.01643718377054 -8.516091519030917
349 8 8 7.791972217385542 17.21125898981995 -9.295930147059623
350 8 8 8.29640441810818 16.286045850998907 -9.410209594261463
351 8 8 7.010325374276553 16.259575122287444 -9.266043571051748
352 8 8 7.190022412325527 16.569091286075412 -10.393270522227883
353 8 8 6.415101165162913 15.951595790801251 -10.520619426518007
354 8 8 6.639868456393779 15.262836841716695 -11.874469165109808
355 8 8 7.198458572533944 13.680613166517256 -11.080408020118961
356 8 8 7.663387614280874 13.29826643476908 -12.43688101985443
357 8 8 8.631126834975928 12.633652349199524 -11.510002460316818
358 8 8 8.519489798239954 12.007027527576367 -10.189329196385039
359 8 8 9.442071421864533 11.747453146104217 -10.56474555103757
360 8 8 9.60893439636965 10.622331674544979 -10.934396352963878
361 8 8 10.545253407053282 9.020003070176514 -11.355537830769146
362 8 8 12.214596137312594 9.368675267037935 -12.338378893919476
363 8 8 11.042013925426373 8.848778561603654 -12.730066478351514
364 8 8 10.959596625914186 7.316179740892102 -11.871069418794866
365 8 8 10.311792023100768 6.491426940139483 -12.979469544955238
366 8 8 9.966843690057734 4.810435349520235 -13.052821708592822
367 8 8 9.360431057011143 3.7539854118974962 -13.507968435259533
368 8 8 7.703235091471158 3.8959732543086427 -14.017271826083318
369 8 8 6.965986285213817 5.540745674276983 -14.363511729574832
370 8 8 8.418742622667846 4.4630540791654925 -15.44015550778221
371 8 8 9.697937005822771 4.811669422971094 -16.74325320818664
372 8 8 10.403372708085032 4.509890547330063 -15.924345236118574
373 8 8 11.663647475742895 4.321035087503897 -16.113011635068126
374 8 8 12.586775038946529 3.80478684105554 -16.385368846032353
375 8 8 12.762988270569297 2.2546700717250103 -16.38571143634923
376 8 8 12.266664050875551 2.358509577843299 -17.65457566375932
377 8 8 12.09531014562119 4.164877769952597 -18.221067187692753
378 8 8 12.201650050631743 3.91960630104163 -20.121940657495752
379 8 8 11.783028763617535 2.083780860637391 -19.87971426496016
380 8 7 12.979364447482554 0.8814152303124272 -19.051075475869613
381 8 7 14.179129800317183 -0.45289855332275086 -17.902229913095404
382 8 7 13.160135965440608 -0.34220864734883505 -18.810656725541723
383 8 7 13.604139711239677 -0.42156205163560223 -20.351634682845607
384 8 7 14.387960796768008 -1.0480540265728513 -20.825105269924265
385 8 7 14.556796231185503 -1.6486782976894507 -22.127382689676224
386 8 7 15.201614898321443 -0.2510154502400019 -22.811405231227187
387 8 7 16.26257207703643 1.3732646218132958 -22.51808696704584
388 8 7 15.511565706390817 0.30147465686580394 -21.88171593744444
389 8 7 15.980196809137192 -0.8812261178443881 -21.329310310733153
390 8 7 16.9792081330508 -0.8255969903843025 -21.53196050447189
391 8 7 16.84815221928663 0.7083194573405246 -20.286274016066685
392 8 7 15.67725286954406 1.3843945270798934 -20.805192747436216
393 9 8 -4.850180462129683 -5.1689518189964625 -15.031392983217001
394 9 8 -6.57517650473882 -5.271049661888136 -14.620768094809227
395 9 8 -6.2128764172551545 -4.3985914310769205 -13.949693640250029
396 9 8 -6.065177441620726 -3.65841766088951 -15.22476971592532
397 9 8 -6.097205721440602 -2.824535645749413 -13.5535896268836
398 9 8 -7.647734506821217 -3.0389571226000367 -14.221135058101147
399 9 8 -8.083820784409367 -2.268062621851475 -13.139459854829708
400 9 8 -6.872365729936432 -2.1456235210608043 -13.124482509146219
401 9 8 -5.8054536441242846 -0.811154245113161 -12.831176780309146
402 9 8 -6.208697650524477 0.17264664944963032 -13.728932184981762
403 9 8 -4.967309483568365 -0.18487097381491727 -12.554304355693198
404 9 8 -5.326412491542652 -0.5454322605285081 -11.554350515043373
405 9 8 -5.690771251531846 0.5618336203430506 -12.684512226171476
406 9 8 -6.319530292775643 0.10685624061522497 -11.469776000777893
407 9 8 -6.962556182870698 2.1188654896411956 -10.477739003911216
408 9 8 -7.951176364257155 1.8636870269124413 -9.487067670261814
1010 29 10 -6.826509084935526 1.3177743969909874 -8.225125565286147
1014 29 10 -6.680437406404967 0.30998612221465055 -8.5769888333353
1016 29 10 -4.608215533311025 0.8889769988679608 -8.91153250002024
412 9 8 -4.1478827595746495 -0.5943593224374444 -7.855088918550789
413 9 8 -3.6313212461127 -1.509687903837953 -7.9395663590588
414 9 8 -4.72631864598994 -1.3309390487269095 -7.309469223128847
415 9 8 -5.915125237397351 -1.3547870665474941 -7.762987494869392
416 9 8 -7.1038974988025 -0.48480451449911194 -7.319619658282295
417 9 8 -6.266817307734035 -0.6068570317351701 -6.526403115900973
418 9 8 -7.280363303820102 0.010502678208301027 -5.914300963981666
419 9 8 -8.575639936928255 -0.5950756625691306 -6.455594291167868
420 9 8 -9.777776799122641 -0.8294722810340353 -5.723364932321837
421 9 8 -10.778722260729532 -0.9433598019183891 -5.858035502755956
422 9 8 -12.223334325359978 -2.276766953226838 -5.387266301819595
423 9 8 -11.227325302265726 -3.384088692217497 -6.035663485766174
424 9 8 -10.540550551536251 -4.811906069292556 -6.963891668498006
425 9 8 -11.426827831971586 -5.135013208813135 -7.485248084420874
426 9 8 -12.048743063945526 -5.1522342917366375 -6.508569603981475
427 9 8 -12.127212183205529 -5.821064432655572 -7.88201937166554
428 9 8 -13.21053887633712 -5.9328365958016835 -7.110051661997541
429 9 7 -12.790412009019619 -5.900077976296429 -8.622210106460678
430 9 7 -13.314223090652325 -5.07930011197822 -7.7049653350009555
431 9 7 -13.047430590600108 -5.555255463151879 -5.874342759307979
432 9 7 -14.607881572100377 -5.469761460689283 -5.102125585424792
433 9 7 -14.546074934596888 -6.802600940885829 -5.227302063208345
434 9 7 -15.411069786009675 -7.7049668059815195 -5.850094754315315
435 9 7 -13.819249011456359 -8.362917579786647 -5.693364835952164
436 9 7 -14.959344227874492 -7.104752197120568 -7.068991568241602
437 9 7 -14.221534944074193 -6.575298371209655 -8.498169568527988
438 9 7 -16.34640282260155 -7.208279156498317 -7.86840100357956
439 9 7 -17.635598170299108 -7.2566978727099345 -6.940402240205233
440 9 7 -16.340865334772037 -7.745361142726874 -6.401626401697468
441 9 7 -16.347299595143177 -7.252598793446297 -4.968584409956537
442 10 8 1.0397603079370648 15.56467549375688 -1.1687479321088756
443 10 8 -1.1237901425785828 15.499370707760045 -1.0546473873563669
444 10 8 -0.7969861496528705 17.08856974965499 -1.0761057533320804
445 10 8 -1.7262123479891895 16.52156078587983 -1.4664238926217323
446 10 8 -2.706713200140012 15.958647060930346 -0.6657916990348303
447 10 8 -3.5816087453503007 15.422194546040078 -1.5341027515771768
448 10 8 -2.9639279629379467 14.800580031586435 -0.4878861729653496
449 10 8 -2.3445976090836136 13.865018716387068 -1.0985728055215582
450 10 8 -2.4323219068677506 12.985666175857723 -1.8189501031492854
451 10 8 -2.182072286881101 11.79178010350632 -1.9523210981556274
452 10 8 -2.8772448608582137 11.451215553299976 -3.2413027765189035
453 10 8 -2.449749451266808 10.527847363544831 -2.056320581945087
454 10 8 -3.521098726751078 10.584744635893095 -1.909724663275564
455 10 8 -3.056242798163169 9.82849433422773 -1.4781138967709184
1015 29 10 -2.79035271212437 9.77325484886781 -0.4794976629137678
457 10 8 -2.3308314182036582 9.331212909910308 -2.016080474993295