# Generated from readdy-to-lammps

1005 atoms
608 bonds

10 atom types
1 bond types

-30.0 30.0 xlo xhi
-30.0 30.0 ylo yhi
-30.0 30.0 zlo zhi

Masses

1 1.0
2 1.0
3 1.0
4 1.0
5 1.0
6 1.0
7 1.0
8 1.0
9 1.0
10 1.0

Atoms

1 1 8 -14.97059309472469 -8.145428223586407 -9.611481373059979
2 1 8 -13.839832441912824 -8.411941093543268 -10.157886059569767
3 1 8 -13.672229977244635 -9.381047469776385 -9.934644290099286
4 1 8 -12.90357795064218 -9.274517196145062 -11.232084041951458
5 1 8 -12.115809464442746 -9.136772994048735 -12.507912365923605
6 1 8 -12.445427643426559 -7.978761618862629 -13.46590629161487
7 1 8 -11.971530348279295 -7.664843370155476 -12.509527108351447
8 1 8 -11.565406878880502 -6.755403005915929 -13.048965153044973
9 1 8 -10.34193305763236 -5.078797050239434 -12.467297618416962
10 1 8 -10.97724585306673 -4.691338197700072 -13.362555422613049
11 1 8 -10.172894661467405 -3.9651724684346847 -13.02411180909362
12 1 8 -10.150460201992683 -5.304207984366212 -13.558759007091908
13 1 8 -9.583461851834242 -5.845352771554954 -12.05291545777118
14 1 8 -8.164193331043498 -6.58008785309981 -12.419651474142627
15 1 8 -7.737032350780678 -7.554724940908078 -11.947013293038196
16 1 8 -7.264782294449468 -6.424490332311244 -11.67022883550167
17 1 8 -7.438916240919154 -5.975090475585275 -9.672143349458878
18 1 8 -8.255605671737797 -7.038757016816971 -9.308761329052556
19 1 8 -9.107346034613487 -7.713450144553837 -9.019691288249344
20 1 8 -9.27406782901177 -6.437649878398111 -8.445231386935275
21 1 8 -8.291280287724142 -6.276234167216043 -8.015967942234429
22 1 8 -6.7257915862956 -7.539518003617741 -8.384221469055305
23 1 8 -6.433220702328779 -9.37019939735172 -8.723729122413918
24 1 8 -7.081642631169947 -10.155169706997409 -8.561159265387785
25 1 8 -5.519775454578168 -10.107361779283345 -8.364441233045053
26 1 8 -4.935537845453292 -8.854680426809832 -7.247433209280422
27 1 8 -5.853967831764858 -7.581559783734024 -6.197611870739747
28 1 8 -5.640356948306607 -8.458371909985296 -7.975902124703958
29 1 8 -6.083850158923353 -7.551818390344922 -9.828836470345973
30 1 8 -6.504778856664442 -9.051506759902908 -10.137344927785083
31 1 8 -5.495547948341005 -7.979848695918982 -10.675160513114395
32 1 8 -5.4654336260894905 -8.987321726554747 -9.415723224313057
33 1 8 -4.0760778318575515 -8.876424535324485 -9.835571214184336
34 1 8 -2.9781189954586322 -7.6818591328159815 -9.821758434188736
35 1 8 -1.5467447485497932 -6.768162656805943 -10.38227759826391
36 1 8 -2.0923169296687183 -8.243848726507958 -10.221098816489846
37 1 7 -0.8843944197837111 -9.702725324532905 -10.777031740561661
38 1 7 -2.0399817658468025 -9.933340583379467 -11.368100813731125
39 1 7 -3.251088655601896 -8.539149066934561 -12.178075221557611
40 1 7 -3.8800419420195458 -7.607913416694894 -12.323955436742436
41 1 7 -5.047277117241238 -8.385418520512658 -13.47186231029371
42 1 7 -5.417205194124173 -7.335866594463751 -13.125120775091725
43 1 7 -5.253740741303052 -6.577831138325602 -12.102987959207638
44 1 7 -5.076375983470641 -6.045910703874675 -13.320832258550764
45 1 7 -3.6272923683303584 -5.145596744651706 -13.276659693774254
46 1 7 -2.944325298215209 -6.123530170960135 -12.594910379858348
47 1 7 -2.3553591053186227 -5.072656337689029 -12.883402189304118
48 1 7 -1.629942564424019 -4.574651363352124 -13.60439158178076
49 1 7 -0.4862606556047137 -4.024450392265061 -12.625820381262788
1050 73 4 -3.1517694549915056 -2.522534925692166 1.0047689341744195
51 73 5 1.473020132338429 -5.472692843070164 -8.161902256358143
1046 73 5 1.0822449031391679 -4.97885563209876 -1.2738584771054628
53 73 5 -0.9886273454799906 -5.013079112926 -0.5947273033804826
1042 73 5 5.400175133745753 -2.7774051596134033 -2.729686975527326
55 55 8 4.882936346335339 -5.530719359844226 -0.8441682407165337
56 55 8 4.986282546150298 -4.476625584227979 -0.26702494372493585
57 55 8 3.576879288980962 -4.848591765228027 0.22491777876041488
58 55 8 3.3100124676486202 -5.7880266793455455 1.265436644853341
59 55 8 2.690395368500489 -7.053002150176938 1.469838379607525
60 55 8 2.4784677931227206 -6.122687357384912 1.6748025013128274
61 55 8 0.9713825489951133 -6.2617388777715455 2.0480030667356166
62 55 8 0.30763462600104613 -5.060748968740195 3.2041119276231504
1007 73 4 -1.0785298172650217 -9.850474230046142 7.885630933657037
64 27 8 0.3604488885061487 -6.293652433248869 0.03033743637191893
65 27 8 -0.23166395446666707 -5.739199869067348 1.6507487417962325
66 27 8 -1.0688904607410383 -6.739324625131176 2.0835076865290643
67 27 8 -1.8882514258341618 -5.649295003483956 2.5736716928621766
68 27 8 -1.458536042624108 -6.650417931325569 3.5770700059747966
69 27 8 -1.3276540591440478 -4.68827552718517 4.711159845448092
70 27 8 0.004690840736715637 -4.4457656308800795 4.673126865788301
1036 73 4 -3.2758327346530622 -5.045005751542866 5.6413626724149575
72 73 5 -0.8563030420408282 -0.012959279893634303 0.838980217013229
1009 73 4 -0.4978115600838551 -2.7129996167475565 9.69643185149949
74 57 8 -1.6942001780264098 1.5592245114168555 0.14700774444111012
75 57 8 -2.353084373765567 1.2152610105145782 1.8660323193350474
76 57 8 -1.9024506676937745 -0.5184740745807614 2.8501138029321007
77 57 8 -2.8677776638736154 -1.0159855649713 2.0739894666050875
1074 73 4 -5.652145853312441 0.8339481104756203 0.9700017272775925
1037 73 4 -3.518191288247181 2.8211098636657663 7.649064649597182
1017 73 5 -6.665534205427916 1.668907793768052 6.171009536623558
81 60 8 -3.582723618725837 3.9116865012517406 3.164474816860792
82 60 8 -3.414947501244581 4.385914272671366 4.357269383526334
83 60 8 -2.521940182599877 3.8182817569601974 2.7531354117955047
84 60 8 -0.92526954687816 4.578897917673284 2.9395042400797373
85 60 8 0.593495443116689 5.333917147547234 2.1415583856380804
1079 73 5 4.0350718427468015 0.7685623841982226 0.9661048448986438
87 66 7 3.8561863297172625 1.5475032904630774 4.1654102587001445
88 66 7 2.64616905484531 1.3463624908542966 3.1293730635614954
89 66 7 1.4866518066936127 0.8314985597714489 1.8758945308736559
90 66 7 2.1773708033696924 -0.12138523192011977 0.924098465922757
91 66 7 2.087028495575524 -1.2231142082475368 2.7081145259167876
92 66 7 2.5006838237402427 -2.8325269761550107 2.2766799300085094
1044 73 4 -1.784105435957975 -1.8333322482459522 -4.108609395524395
94 59 7 -0.3907898553640772 0.8526242093312978 -0.26984806744673284
95 59 7 -1.2438929987556404 0.8743701313953416 -1.084588376378662
96 59 7 -2.326357600650267 -0.5665727239483476 -1.4183436961288713
97 59 7 -3.323150215891258 -1.2391987737513752 -1.231895969709281
98 59 7 -2.774764624989076 -2.3543034825802094 -1.983223438912657
99 3 8 1.3278751479570725 -9.13545097091247 2.346129440116453
100 3 8 0.5837679707054466 -9.162971728205527 1.2872845208264099
101 3 8 -0.6701862945844211 -9.431185195041195 1.953968283057678
102 3 8 -0.7470409493000953 -8.197762274050563 1.5147429699813124
103 3 8 -2.3039286333680953 -8.297093984600359 1.047921063308988
104 3 8 -3.1539900832570043 -7.007050167778116 0.011692691865104375
105 3 8 -1.8758201970672335 -7.02214309879679 -0.45124181109216976
106 3 8 -2.4398523777874135 -8.83354037718707 -0.21224586486638689
107 3 8 -3.4481005884872156 -9.393877506935677 -0.6356764166394074
108 3 8 -4.983392623729915 -8.76885821909897 -1.0065015799070303
109 3 8 -5.613441545029055 -9.075067986461558 -1.841370923165413
110 3 8 -6.028727942066359 -8.653824587302635 -2.831777462995263
111 3 8 -6.850521254463235 -8.348184347610053 -1.7764020688221371
112 3 8 -6.801111910822838 -8.245112770423031 -0.7826702343160015
113 3 8 -6.924145742358626 -10.09264896551281 -1.4327872130313302
1024 73 5 -4.396412368868164 -10.488185694054637 -2.494136791367016
115 45 8 -5.604471823313552 -9.548002644301986 2.2331557415319367
116 45 8 -5.765883317150349 -8.381396934681558 3.092737814599939
117 45 8 -4.325590289178431 -7.498006266143279 2.7552993513893567
118 45 8 -4.492709872695682 -8.51966614207114 1.67862800871898
119 45 8 -3.6754082085746287 -9.094594708990561 0.41392727179711697
120 45 8 -3.507428590518811 -7.979768482297059 0.6154360449953837
121 45 8 -2.683795089336961 -8.151862196578923 2.0860400909178014
122 45 8 -3.122039279286014 -8.543400382824668 2.9850976365414486
123 45 8 -2.475995667267155 -8.773439638629695 4.133655645390164
124 45 8 -1.3358984614387654 -9.948906072882155 4.701342347288967
125 45 8 -2.29220167335099 -10.088136417117907 3.740717533926891
126 45 8 -2.896167863805374 -10.416568968327768 2.858021969487706
127 45 8 -5.030212499405468 -10.690509356543918 2.9704311410351028
128 45 8 -5.193516080665942 -11.2919559276728 2.1741349900109563
129 45 8 -6.189022195105666 -11.420902186844199 1.7275411579212459
130 45 8 -6.327969652406107 -12.594170175540459 1.297562358550014
131 45 8 -6.232936113856839 -13.96860159212459 0.7210805682311207
132 45 8 -6.777061310549876 -12.981530664931475 2.6637365788245875
1097 73 10 -6.777154037581988 -13.864099619993066 3.4084657940813905
1084 73 4 -9.141499941478711 -13.127721007246912 1.6305492441601357
1025 73 5 -7.0413589584904726 -12.326066189263498 -5.385435063212479
136 42 7 -6.329652637970249 -15.06939593735183 -0.3122438132495233
137 42 7 -6.387823175702993 -16.000021369851353 -1.8568654674076317
138 42 7 -4.226861428873938 -16.957743887806537 -2.0239148694045825
139 42 7 -3.637175213280631 -16.00480066323493 -1.1328988265169335
140 42 7 -1.6186727360789523 -15.308404812246302 -0.8106866080964098
141 42 7 -1.8216154653706207 -16.507179153788165 0.6824650314011718
142 42 7 -1.7047154884165618 -14.515635676234833 1.413784027995271
143 42 7 -2.2280375335112046 -13.28445213642337 1.7771236028246733
144 42 7 -3.737926133213448 -14.45730277381733 2.678453529276842
145 42 7 -4.3378782843011034 -14.95232725860832 1.787405299389626
146 42 7 -4.585753080208682 -13.148922532271195 1.6979064242803672
147 42 7 -3.5272285689082215 -12.581888073446647 2.9906727585265847
148 4 8 -0.9132219371598083 9.84831451849833 18.667841438098208
149 4 8 -0.5773235743202801 10.994867447255118 18.833963638512085
150 4 8 -1.0220276281265501 10.876919952386464 21.010748387202174
151 4 8 -1.0765538136090744 11.051012264850387 19.87453577048184
152 4 8 -2.015867041124366 11.41640851584643 20.22023428389865
153 4 8 -1.4309796245395348 9.918922730545669 20.364947731069265
154 4 8 -2.668916673114141 8.207887543928027 19.87588694385518
155 4 8 -2.427403798065797 9.668590068606896 19.325511207468512
156 4 8 -4.055952565540459 8.663765498084723 17.666396463908097
157 4 8 -3.173781098784964 8.160757455494908 17.1014205905585
158 4 8 -3.135512729177645 7.089791401510312 18.51044489432883
159 4 8 -4.059135737111875 6.715215410268918 20.064947893391547
160 4 8 -4.0153743956648595 7.469805145294709 21.11943494861253
161 4 8 -3.935914203495195 5.6315472018390444 21.20021441125271
162 4 8 -2.737729848836393 6.251677479813065 19.83087769257716
163 4 8 -3.44518419490413 4.773071555054773 20.67745945077749
164 4 8 -3.5884796791335623 3.326192524189861 20.83041580007355
165 4 8 -2.6261074433915743 3.9030190099883955 21.54241689038654
1031 73 4 -5.846603589012065 8.64770534119243 18.047386018473134
167 73 4 -4.879073842565509 7.152475190559528 21.722517775007645
1043 73 5 -3.505242466201319 3.8081481749269583 24.98044655712842
169 67 8 -4.834921409381965 2.9582579361325467 24.18397626070771
170 67 8 -5.617542119838947 3.57831137644284 23.173976975081445
171 67 8 -4.55630406154702 3.2314096164733175 22.87671656062236
172 67 8 -5.486590344162749 2.053418932777194 22.912139073763026
173 67 8 -5.706782057122792 1.2375572277095863 23.95971879597165
174 67 8 -4.703773664887843 1.2042836479443257 23.80724866740149
175 67 8 -4.405302016526322 0.6668023902638085 24.6781923841067
176 67 8 -4.557552086573128 -0.7838670354175997 24.298990140478015
177 67 8 -3.7379704494629356 -0.8598291666953392 25.139580474891996
178 67 8 -2.981450222682968 -0.24849589088962695 26.628739479152518
179 67 8 -2.376531167463486 0.6761744414162091 27.939444584800018
180 67 8 -0.7856185141020738 0.6889732781152608 27.254207970536356
181 67 8 -2.0735613566963607 -0.5007611393028321 28.563482464531045
182 67 8 -1.649404090151061 -1.4871822831988781 27.666419567531232
183 67 8 -0.8157410620604073 -1.4460189926927196 28.788646703817463
184 67 7 -0.6414406466961025 -0.4396629562689801 28.601540366354666
1028 73 7 0.19407430800182462 -0.3707058408548668 27.300088552464864
1023 73 5 4.91446053669822 -1.1742650159317025 25.177033597947744
187 31 7 1.1712070277817184 -0.7471296219434977 23.908753860959795
1091 73 9 0.2917327766010616 -2.05294465137308 24.68869754021859
189 31 7 0.12508539468068283 -2.9179239149188585 23.07795158171936
190 31 7 -1.3058711054097316 -1.9732561551454366 23.697061794291237
191 31 7 -1.9114857137666783 -3.413170475443032 23.555383647243566
192 31 7 -2.6066956566765547 -4.4236284957408865 22.9345297953925
193 31 7 -3.2288921748326262 -5.066482395814204 24.613983658979087
194 31 7 -4.295997611995227 -6.025228654434892 23.23209569299255
195 31 7 -3.6745115217435105 -6.853781528009255 22.174040810403387
196 31 7 -3.0205569072675753 -5.352219399729328 22.394063511660907
197 5 8 2.78665674371688 -2.477238089023285 12.755687796546223
198 5 8 3.701388098921459 -2.775323518850026 11.767605477970484
199 5 8 3.984356142999147 -4.3617954301557225 12.28724314587233
200 5 8 2.7251367883304636 -4.236121594574963 12.967299001899162
201 5 8 2.192824325793169 -3.1557711210166928 13.852604933236622
202 5 8 1.341830268459466 -2.3723179367950094 15.075698259353459
203 5 8 0.848914337525821 -3.6867385452139976 15.829138687561102
204 5 8 1.703348328450574 -4.226772443742015 17.247886282651287
205 5 8 2.369935126302373 -3.3759709225005623 17.23660638849084
206 5 8 3.046342593053347 -1.9359140356240847 17.26526636785515
207 5 8 3.897517556307174 -3.5630952773678644 17.551596898273736
1056 73 5 2.884727363243395 -8.738033593303776 16.219272646517698
209 70 8 4.596705448431291 -3.043890617767265 16.181795105096395
210 70 8 4.864627553331589 -3.7108343302857 15.036472318612242
211 70 8 5.681911034269727 -2.981352930948752 14.031950908560724
212 70 8 5.996898264558443 -4.051298833364071 13.469410816414584
213 70 8 6.984152431151707 -3.0700857997097453 12.991562621330957
214 70 8 7.00529098600483 -2.8015101305268097 11.83325113895832
1080 73 10 5.505341723391935 -4.2844209076145345 11.868699381298113
1019 73 4 6.454333166040806 1.2368644332163865 12.447847141191435
217 30 8 6.0023630231655805 1.5295890581779874 8.022028121120925
218 30 8 5.359017256191333 0.30576437598893613 9.197433236937943
219 30 8 6.3794358862679665 -0.5682012959714873 8.752104780377381
220 30 8 6.15154366857911 -0.02061788065419565 10.017531743748608
221 30 8 6.864398138295795 -1.2904730861949993 9.51322469018356
222 30 8 8.082209105350962 -0.5297178796942803 10.345860363099595
223 30 8 8.645840967312509 0.29827996104186144 9.572243812410681
224 30 8 8.89648980459666 0.058177117257343425 8.071215608955823
225 30 8 7.579682125820248 0.28286681689056364 7.544576132622521
226 30 8 8.122729693904974 0.7590685376972853 6.676722515651471
227 30 8 8.220182751695136 0.32707236444909704 5.298407321070763
228 30 8 8.133394911739023 0.45371131472911214 3.3833032179343925
229 30 8 8.212587944851434 1.7099110760778293 4.259841838443643
1054 73 10 9.941917203751045 0.8905993190969911 4.511363568081417
1076 73 10 10.065853399941075 0.7261243191582025 5.6944222000477325
232 30 8 11.727200745816779 0.46940087964134114 6.822476951836327
233 30 7 10.400962892054288 -0.24885621071322284 5.665660038225387
234 30 7 10.061665951828015 -1.424693811202998 5.868272820429186
235 30 7 10.264270198368182 -1.7798246844409455 4.5886649621739295
236 30 7 10.120697691451296 -2.8630229168654964 3.695517998930925
237 30 7 9.498562809789467 -4.189946094696217 2.534331415029091
238 30 7 7.994896002274299 -4.1810197083955725 3.124845848124849
239 30 7 6.81679400505755 -3.131794016539028 2.1973535907005046
240 30 7 5.895186670669411 -3.717210249597749 3.159299635402436
241 30 7 6.223898859081094 -2.751826522501036 2.933708473763112
242 30 7 7.389295228529171 -3.191487876511448 3.334157915811058
243 30 7 8.406784125127347 -2.337417100172199 1.8315578509232195
244 30 7 8.60637868878924 -1.0260629052265966 2.677256673494914
1090 73 9 7.342271443270349 -0.12898509675495418 2.420956186360351
246 73 5 -1.1595297335331844 4.400068481590161 5.412800215443469
1052 73 5 -3.7530000942705755 3.433481365465814 5.414180502823971
248 32 8 -5.396171578627715 3.208207992108845 6.021087566480546
249 32 8 -3.3647511894297253 1.8870117702961369 6.049121312296513
250 32 8 -2.890697014660304 1.7764382620929076 4.510607583130814
251 32 8 -2.263208621485769 2.607537969733504 4.2479056732722595
252 32 8 -1.4693680921595842 3.357752294260884 4.888365239114747
253 32 8 -2.0563992238631834 3.4852250833078835 6.912321954832636
254 32 8 -1.015712698959506 4.519614710971843 7.944460799955644
1071 73 8 -3.4788315322923853 4.259247203103695 8.543504443181256
256 68 8 -4.460134984728061 5.545190984749376 5.742929609705399
257 68 8 -4.408532617810256 4.492329710398118 6.951348325520201
258 68 8 -3.7816330198078396 5.552051710055875 8.117995536735402
259 68 8 -3.3366194179007205 5.044341523597993 9.271322245358538
260 68 8 -4.233332378352838 4.25666263343269 10.704112011821522
261 68 8 -3.7859952966661337 3.953533393802615 9.787831261341767
262 68 8 -2.8339681363497222 3.2900965458943645 10.417092999718442
1069 73 4 -4.255139520169474 2.344095294572988 10.567663367157527
264 62 8 -5.169448479304937 1.8769237889914294 11.188472631425318
265 62 8 -4.25492459532909 2.407202205690571 11.643211499580167
266 62 8 -3.2703226886202015 1.355243241812724 12.248270069551182
267 62 8 -2.3342330057546636 0.7333300164239491 11.229321327630538
268 62 8 -1.1902938051608973 1.5060395680742373 10.886243231412141
1034 73 4 -7.122415286563491 -1.3724900863900389 11.93254519045497
270 48 8 -6.008804751266756 -0.23547481056359743 15.364213899263625
271 48 8 -6.350667057886595 -1.5240859346324682 15.67526068030802
272 48 8 -5.352453588214191 -2.539134066302759 16.012581560654866
273 48 8 -4.890779564804255 -4.235167661675494 15.034008498453955
274 48 8 -5.047084948125373 -3.187270227228939 13.693112078710293
275 48 8 -5.039311989981303 -3.4989807270296054 12.163406768027397
276 48 8 -3.6030410198080873 -4.037813138982286 11.535811744195959
1047 73 5 -4.028955331204366 -1.6008955314274338 10.495393955692572
1012 73 4 -3.3956757509061393 -2.5992508417918874 7.536781751167602
1026 73 4 -9.118082847399984 -6.467014654393907 10.615884157895344
280 51 8 -6.566470643734259 0.20224521831606662 8.070266626531815
281 51 8 -6.269779492900872 -0.7043741975534195 7.144965897933855
1075 73 4 -5.537211659338057 3.6236664414007533 9.384792807477664
1078 73 5 -4.451524823438586 -4.916075841380052 8.954128083341539
284 65 7 -4.87455021980255 -4.968388932524033 7.340703242115454
285 65 7 -4.6090261885037345 -3.693096418711658 6.1291828626374105
1100 73 7 -5.668434991359625 -4.376961299901881 3.922017490001105
1099 73 7 -6.75973237006219 -1.0242768841280763 5.2495129110259375
288 69 7 -5.961745660028586 -3.764219169176311 6.338238354318263
289 69 7 -7.49765269207582 -4.10422054221671 6.739314720052421
290 69 7 -8.300727037448546 -3.5102007777160336 4.874477411925014
291 69 7 -10.220326474282967 -4.348293916002525 5.439727818222896
292 69 7 -11.15568467241543 -3.5483953589465287 4.198175592435517
293 69 7 -12.390794761146136 -3.2053467473316064 4.235886326160264
294 69 7 -13.732487631199703 -3.664847104294289 3.7892026246338326
295 7 8 1.4919416421762066 12.583578134747867 4.9652929086977675
296 7 8 1.6725298293782578 13.934063739699264 6.093400263490774
297 7 8 0.41098248502238977 14.673552033180863 6.19394289500275
298 7 8 0.0895834683905067 15.031899569885773 7.6482456690742495
299 7 8 -0.645633485880528 14.427765520458289 8.767742417458544
300 7 8 -0.13014849847133772 13.902981300988332 8.06662279140406
301 7 8 -1.6791496783633098 13.268605739484194 8.701672493397695
302 7 8 -0.9327515954810015 13.66604539394799 9.532709193145912
303 7 8 -0.15568446313620568 13.08944096007847 10.50228036357344
304 7 8 1.1471347547427697 12.866983211148384 10.143492774009744
305 7 8 0.29098989693397415 13.234189144158112 9.021475636087951
306 7 8 0.8939140896878459 11.804062933130927 9.113868316235942
307 7 8 2.6726769424872043 12.578044496080416 9.46385231708243
308 7 8 3.6395998630126796 11.135048440602525 8.527830808539596
309 7 8 4.056781290600589 10.655841862171004 9.517074455069444
310 7 8 3.825167513195588 10.60018337385429 11.130294152779857
311 7 8 3.0491286797054924 11.234718201363687 9.699889626715782
1011 73 5 6.186607167666551 7.6081212652721275 4.068014660242749
313 46 8 5.058758318459565 7.866437022797657 9.509535897895896
314 46 8 3.7528453987249573 7.746747937383778 9.073830718947523
315 46 8 4.030421337556645 6.408534723921709 9.078019769938475
316 46 8 4.26044039323644 5.194071937417488 8.973223191506044
317 46 8 2.846325749834788 4.726733512447701 8.700909336867346
318 46 8 2.9857432555381753 3.1156272812333428 9.103274128891496
319 46 8 2.901406632348969 2.874950459653424 8.044904162905935
320 46 8 3.887232398089065 2.0564719858662754 7.069164868022461
321 46 8 3.5927056848554964 0.6016120491734175 7.683508487387806
322 46 8 2.716283385869471 1.2683694890031094 6.263614765315276
323 46 8 1.6908232780162014 2.4314863245287257 6.688033774352789
324 46 8 1.6589968565088866 3.9493508105736628 7.205339277683656
325 46 8 0.49459747495713363 4.5494332158669435 8.687812965035093
326 46 8 -0.7167929495354382 3.906508272420076 10.410151443735446
1064 73 5 0.13952147286196648 4.7182229914756535 5.3011213666992125
1088 73 4 -1.7212533156433547 1.007342283184453 6.024073823711537
329 50 8 -1.5568501457530033 1.8621418664476301 7.019302889532367
330 50 8 -0.07144744808353992 0.7431601138218914 8.056313628035351
331 50 7 -0.7503127300695437 1.7312679082066615 9.28098609774094
332 50 7 -0.21282483221795007 2.1917281530071384 10.197525456183865
333 50 7 0.5854103902209842 3.393960898538334 9.649347756721971
334 50 7 0.6577328452607591 3.019436193662236 11.101847592790005
335 50 7 1.3259346623209267 3.380729337250861 12.216034576373328
336 50 7 0.1106101544900741 4.173371541574795 12.561779902105753
337 50 7 0.7196546416053381 3.805795031591481 13.438183344774721
338 50 7 1.3947455621217624 4.606015230903502 15.02627192267136
339 50 7 0.9123553165113037 4.39237991659483 16.275164946053803
340 50 7 0.5985649855858249 6.138695606870468 16.421033637256244
341 50 7 -0.33889341841404574 5.9449524105308615 18.220756285568296
342 50 7 0.11401234564192525 6.165534399081869 20.09157909888315
343 50 7 1.9391541854329488 6.4280253177723745 19.487495544645387
344 8 8 7.68421955552231 19.180524252447967 -7.939374675706398
345 8 8 8.66306208085387 17.50942759207141 -9.047769470188047
346 8 8 7.964066655341997 16.589231193019675 -9.195733184567384
347 8 8 7.640206209060564 16.453558572106214 -7.958002669594801
348 8 8 7.021896104495137 16.855451411658404 -6.892726281552262
349 8 8 8.302829528477883 15.558164969988168 -7.640100535028572
350 8 8 7.789001524483109 15.166255939330558 -8.955105583366636
351 8 8 7.1690217985486235 14.211067766849617 -9.825284960597893
352 8 8 7.972776186307388 15.370785072556735 -10.355260309116787
353 8 8 7.800797177916167 13.31906440831637 -10.670329935895131
354 8 8 7.084687307082775 12.817295635896587 -11.976135221854312
355 8 8 6.893499845105385 14.088066327407471 -12.064655445161655
356 8 8 7.374520719536855 12.903696837371726 -13.946041051963432
357 8 8 7.801852829637449 11.002850423684498 -12.963823524169133
358 8 8 8.093731225170096 10.044164224297955 -13.511138698533978
359 8 8 7.992847136373705 10.131668452018454 -12.239883282574997
1057 73 8 10.963386139818663 8.26759085573152 -13.272430886890037
1048 73 5 7.761718795581033 8.957563015115086 -11.992653868708912
1066 73 4 10.85330834966098 7.695781971511592 -10.920464158107306
1051 73 5 13.820016955994525 8.121560800203563 -12.563881288495473
1077 73 5 7.316694005346539 3.0337215285490373 -11.979490316713983
1063 73 4 9.371001019534917 1.1986123107172661 -10.451625271622635
366 35 8 8.931611343317234 1.3783180011245002 -12.030286578235303
367 35 8 8.860904666437612 2.8148455281692204 -12.776282637005794
368 35 8 8.816733092989907 1.4719060223094522 -13.326818587493257
369 35 8 7.571830461252225 2.8374177065908297 -12.954110430807109
370 35 8 6.188107819562048 2.318378557704999 -12.964107567758447
1038 73 5 12.54031119728197 10.432018263874237 -14.043285636733849
1035 73 5 14.837809887358587 7.887960881044807 -20.48933663088784
1083 73 10 13.00905860336063 5.872026288100789 -19.20315359139674
374 43 8 12.279509950133631 5.894838077623078 -17.770318178592724
375 43 8 11.05016456670852 5.752236651649565 -16.947364905164346
376 43 8 11.039385161026281 4.368119318684717 -16.44139418362544
377 43 8 12.563462465172073 3.9964925819357515 -17.53194871892055
378 43 8 12.8377283508411 3.4522018763858306 -18.331545827787604
379 43 8 13.32210763746019 2.640425902588152 -17.581161733712
380 43 7 11.483581596648074 1.7498514985621527 -18.190127273919476
381 43 7 11.664980527531176 2.8260470672213613 -19.243263367236104
382 43 7 12.194923943577672 1.454163122988244 -20.037255820687157
383 43 7 10.923545610018252 -0.20721274484220178 -20.601522461286645
384 43 7 12.651997333548403 -0.12607418903466883 -20.111110001678107
385 43 7 12.927000745062537 -0.8430879411615839 -21.020458629001592
386 43 7 14.077254930163663 0.5775320886146108 -21.487278218249074
387 43 7 15.120389987291135 -0.6102653062231291 -21.612223907302504
388 43 7 16.14592359136533 -0.8390158257290408 -22.714026403065958
389 43 7 16.954580711625166 -0.31246640002514425 -23.754575698188507
390 43 7 17.464631559025214 -0.6442721203582515 -22.029126218694408
391 43 7 18.34463380225445 -0.4040742884676546 -22.502493366595793
392 43 7 19.100669252449144 -1.067969692049781 -22.870302392245062
393 9 8 -4.840465517075498 -3.605399565740893 -15.585864967180969
394 9 8 -5.712531973714677 -2.2985097045458924 -15.531546560471902
395 9 8 -5.700519060652366 -3.6029428525518545 -14.991289954230448
396 9 8 -6.400398886660631 -4.170275519909015 -14.24584494304254
397 9 8 -7.161747092483895 -3.814188166619932 -13.666904271215373
398 9 8 -8.396045665563364 -4.325306295150296 -13.950049688493069
399 9 8 -9.14474383562199 -3.2800467076111173 -14.548073138944043
400 9 8 -7.953282159320738 -2.3739492902141293 -14.94507029551784
401 9 8 -7.80909110789869 -2.7675237851495944 -13.923888986812743
402 9 8 -6.271662246306285 -2.3036469376936712 -13.640293589653417
403 9 8 -4.79913577916298 -2.2761471057500255 -13.716335916627832
404 9 8 -5.2419237237816425 -1.504600182770133 -12.784265120493753
405 9 8 -4.49607971708674 -0.7579079540205486 -11.320417480810704
406 9 8 -6.29138910193239 -1.9750446423239187 -12.134082875294553
407 9 8 -7.18213740951412 -2.5682299214128537 -11.101148221391668
408 9 8 -8.55702389050318 -3.126212840107486 -10.57706306965939
1010 73 4 -2.3585879465337456 2.186969656141139 -11.115185555237476
1022 73 4 -8.540894056420399 3.710377078748722 -6.865375370017029
1016 73 4 -7.636523143315291 5.006694728195926 -6.543463909369988
1029 73 4 -2.3603944640914207 -1.854215835518188 -5.76298176371895
413 53 8 -5.418250433020553 -2.1157420762698402 -9.317164405840026
414 53 8 -4.644251021453605 -2.530598845064443 -7.986756035586052
415 53 8 -4.254768793217056 -1.3962801609414608 -8.163979328982702
416 53 8 -3.835130147331187 -0.3418650375071801 -7.182865625034459
1021 73 5 -8.248945861836315 3.9941273592578885 -8.830800090397846
418 33 8 -8.235017471890968 -2.2314736197401435 -8.550629043038649
419 33 8 -8.158949815800408 -1.1344843854310074 -6.569083634815684
420 33 8 -9.405733917491558 -1.1836051551813527 -5.63088547080641
421 33 8 -8.883562517479785 -2.6400604390745523 -5.393835519298516
422 33 8 -9.634366224764342 -2.0337785769777073 -6.729826040552376
423 33 8 -10.601599955193398 -1.5859662955811347 -6.092969537053613
424 33 8 -10.8295651218269 -2.9086921081177253 -6.637306139069992
425 33 8 -10.192789797214187 -4.195436875410399 -6.191008450457838
426 33 8 -11.729589283494372 -5.244443424281948 -6.257653987476531
427 33 8 -11.9270444924994 -5.063234767795238 -7.329739661045624
428 33 8 -12.059047918637068 -6.396944696226913 -7.813315306628923
429 33 7 -13.890829643614818 -6.006793665036741 -7.1950265533404085
430 33 7 -12.818408895592373 -5.701896963803306 -6.769868614278844
431 33 7 -12.741492288408903 -6.565220852677176 -5.793887052191301
432 33 7 -13.74210980355991 -6.866390060580034 -5.02138048053401
433 33 7 -13.6949324945677 -8.219832445929091 -5.410894722164065
434 33 7 -13.164318990544022 -9.495925035437507 -5.358641197933214
435 33 7 -13.38412077533731 -10.27772763446661 -7.063733643363895
436 33 7 -14.270729921128584 -9.33571818533892 -7.921562164232967
437 33 7 -14.894557903523149 -7.811405737789542 -7.637962507535577
438 33 7 -16.429517231596044 -8.031569008716835 -6.73804545855566
439 33 7 -15.537775484804865 -7.538601100362671 -6.545667131014328
440 33 7 -16.15064756348002 -9.38788900074953 -6.93191780717822
441 33 7 -15.964019585240806 -9.648191443978538 -5.246194704383016
442 10 8 -1.5841235790443826 18.452396905384763 0.5709674070427109
443 10 8 -2.5949108599928636 18.082164612032592 2.0658440468789365
444 10 8 -3.3927705208184946 17.220958878643447 1.2243737711639748
445 10 8 -3.8934947284408867 16.346433252958995 0.6089995683368304
446 10 8 -3.2621466845494425 16.43361822557427 -0.9946409315779191
447 10 8 -3.3147445134254716 15.288369542493731 -2.2583756784671905
448 10 8 -3.7861029711038796 15.59285209619878 -3.507282662161281
1082 73 10 -4.300688774783578 15.232235871780102 -4.7822560009845665
1093 73 10 -2.682013972982259 14.065565824391657 -4.238704137489734
451 10 8 -2.249220593343981 13.155473699148464 -3.0598025601670393
452 10 8 -1.7923810710224 12.846887659797892 -1.9391473412252809
453 10 8 -2.2908189816370914 12.02917675815519 -1.0212366476841173