# Generated from readdy-to-lammps

1005 atoms
621 bonds

10 atom types
1 bond types

-30.0 30.0 xlo xhi
-30.0 30.0 ylo yhi
-30.0 30.0 zlo zhi

Masses

1 1.0
2 1.0
3 1.0
4 1.0
5 1.0
6 1.0
7 1.0
8 1.0
9 1.0
10 1.0

Atoms

1 1 8 -13.271634265145487 -8.384005250232757 -9.94078118098734
2 1 8 -13.59944834010363 -9.454525165055875 -10.784851532892356
3 1 8 -13.380079488582227 -9.739368370419436 -11.810421173933292
4 1 8 -12.617155302328284 -9.027694839332492 -12.720166491575643
5 1 8 -11.152742108513166 -8.80773043258064 -13.29229569827618
6 1 8 -12.182467605976296 -8.142640005888545 -13.298635241843952
7 1 8 -13.274364451954531 -7.934618376147185 -13.059232669753218
8 1 8 -13.21394889332153 -7.056308346550466 -12.302830040616639
9 1 8 -11.937026035398308 -7.219689045027077 -12.431127669567834
10 1 8 -12.160089327395786 -5.069260464927398 -13.275491298328403
11 1 8 -10.82848449035902 -4.772359068260729 -13.164203706767394
12 1 8 -9.909068643664309 -5.591528498279917 -13.450646392413333
13 1 8 -9.443665621598507 -4.74673626680628 -11.95240886421338
14 1 8 -8.511112191181947 -6.182763235472423 -12.128735986925925
15 1 8 -6.465981584519686 -8.03685869116105 -11.556436594265904
16 1 8 -6.472526495985918 -6.9678339296799425 -10.632314989613402
17 1 8 -7.291318538520923 -7.533446291138353 -9.694514456293632
18 1 8 -7.470211934016973 -8.561833745654718 -10.29836249550776
19 1 8 -9.016506623391246 -8.584156658217418 -10.308780831020831
20 1 8 -9.618483897787169 -8.66103117733818 -9.211212070129555
21 1 8 -8.685999106102988 -8.42917289508064 -8.281433159586182
22 1 8 -7.881246408620735 -8.604681964691364 -7.17541962563479
23 1 8 -7.48166095113004 -9.39393891657386 -8.41907541016691
24 1 8 -7.303179062252462 -10.34232433699406 -8.124555909250816
25 1 8 -5.816415985304318 -10.037119543800003 -8.108263842416784
26 1 8 -5.168384484999813 -8.35010789510082 -8.113496120348735
27 1 8 -5.956560587965078 -7.195414096525276 -7.860793677263109
28 1 8 -6.245933695336898 -8.377282486603193 -8.567949249114832
29 1 8 -4.814917712082781 -7.606364032623663 -9.960956848469403
30 1 8 -5.882446419700525 -9.382612775234318 -9.796958289678983
31 1 8 -5.110390232647954 -9.053812113434216 -10.573188063258199
32 1 8 -4.249497477484824 -9.630367416123981 -11.304378580356552
33 1 8 -3.6980848529353336 -9.317903208437095 -9.987753234103286
34 1 8 -2.4924922375729444 -7.974037219943306 -9.55132803144259
35 1 8 -1.459575358703489 -7.480948139838197 -10.796617096329513
36 1 8 -0.9812312658395735 -8.080776970529005 -11.989861264099508
37 1 7 -1.7922222713185938 -8.318028990852087 -13.741211181499159
38 1 7 -2.0740021831106596 -9.17649940457851 -11.992620718203073
39 1 7 -2.8385502066879775 -8.123174334403615 -12.073667597171742
40 1 7 -3.319120716888625 -6.525347893718346 -11.531765658300495
41 1 7 -4.031003376913454 -7.55830905997611 -12.411081809917171
42 1 7 -5.54059415002376 -8.272583278605998 -12.664353829177927
43 1 7 -5.17982124419446 -7.3409872306898 -12.82236421945842
44 1 7 -4.53716010493628 -5.829849510626175 -12.362800561355504
45 1 7 -2.96999583203843 -6.598692699691476 -13.106585640963127
46 1 7 -3.15830482256425 -5.200651744339755 -13.271951764797816
47 1 7 -2.6354987942988726 -3.6003943062831483 -11.715343007842993
48 1 7 -1.2376197278007957 -4.457742979582951 -12.05990834583034
49 1 7 0.17915850651763335 -4.367751595917746 -11.700822301259668
1050 69 4 -2.1742919347946685 -2.711601363805114 1.611008963358635
51 69 5 0.22933886160718406 -2.949144985372699 -8.231509687464111
1046 69 5 1.4202607450795697 -5.153230536675657 -2.355937609823654
53 69 5 -1.361219927266684 -4.120812213635659 0.7292257239302515
1042 69 5 4.09844233756099 -3.476345691081652 -1.0523508513521491
55 55 8 4.2920141466118 -6.992453235457267 -0.4637193218907327
56 55 8 3.2474822370610643 -5.771333359648048 -1.5528577215370605
57 55 8 3.2008514994118134 -5.66421814474394 -0.1506317128098369
58 55 8 2.357955034820143 -6.426539507535099 0.31023438327883623
59 55 8 2.2345996570260915 -5.899674828467418 1.9188740758786982
60 55 8 0.6270809294169628 -6.132070308482202 2.580739379631252
61 55 8 0.631572320242512 -4.772651837133788 3.5563696290529596
62 55 8 0.48158078072961 -5.432483523309357 4.840399781530668
1007 69 4 -1.6904180718208057 -9.692219646008212 5.8781145901897265
64 27 8 -0.87673574048711 -6.2254755378813105 0.7908019786764057
65 27 8 -2.002879408057774 -5.697458643245208 0.6447942962957004
66 27 8 -1.9985380067822538 -5.4160467720427405 2.061307777637579
67 27 8 -0.9396562088400054 -5.8350753443713685 2.781714389405873
68 27 8 -0.7575597897540335 -4.939256900772458 4.095494012459187
69 27 8 -2.2167836413157906 -5.3381219889453 3.9161627081349324
70 27 8 -1.4377726573061897 -6.02535791666375 5.0222424155701955
1036 69 4 -1.7747313251100614 -4.046512838064738 5.592820636535011
72 69 5 -0.47154416449163467 -1.0904227983643133 2.210176635000029
1009 69 4 -1.7857628776772185 -2.463498518801311 7.107601400743377
74 57 8 -3.9897584458989903 1.016260214599145 0.6945690869907971
75 57 8 -3.2320400186325187 0.6156568585643486 2.2434001797244245
76 57 8 -2.828486843864033 -0.9262182658070922 1.4931012216994632
77 57 8 -3.3697890255033514 -0.13246248031062505 0.04078219024025279
1074 69 4 -4.323849644852698 -1.3510990436050294 1.0995135100910687
1037 69 4 -5.0783674809003445 2.868147581105316 7.410249635729151
1017 69 5 -7.141789965979356 0.8875505214767804 5.147657970044774
81 60 8 -2.961636182318826 3.507133427365819 4.020132181953532
82 60 8 -3.447218639366064 3.3832884694634338 2.8137282445861467
83 60 8 -1.978981528776602 3.918882381035269 2.2153094338326955
84 60 8 -1.037540260099586 3.6940690666603877 2.8547348344792787
85 60 8 0.45298346207729207 3.4148695208361333 3.9765331031032924
1079 69 5 3.704871354722881 2.4826980377123626 0.6554760888111625
87 63 7 3.04289949977617 2.339784336761934 3.9099199229207557
88 63 7 2.213557997782191 0.9134013696094307 3.8141609255917013
89 63 7 2.1440156477088665 0.5363971372261754 2.824834777066884
90 63 7 2.2212816312608408 0.2772222842817217 0.6633617311675967
91 63 7 1.923003125838619 -1.5602916327052727 1.6671205301286067
92 63 7 1.012747761217248 -1.290243902682098 1.5317634323241125
1044 69 4 0.21684674718560978 -2.1989254414950574 -2.814952727247461
94 59 7 -0.029081108876532844 0.7190676838360857 -0.8472156573267989
95 59 7 -1.0600326654221437 0.923668039005857 -1.0147455157980587
96 59 7 -1.6741878816629694 -0.2762230715738383 -1.8230111204469606
97 59 7 -2.3831394341727212 -1.0697527667761804 -0.3756995369613733
98 59 7 -2.5012876062470775 -2.2693150405449805 -1.3073970429176267
99 3 8 1.5093096404920412 -7.9886519218684455 1.5851456168711378
100 3 8 0.8097618329492137 -8.918982122669862 1.5916820841446198
101 3 8 -0.28572048888628004 -9.845879265155943 1.5650373989533892
102 3 8 -1.0250891405939533 -9.3696731126624 2.209658801430769
103 3 8 -2.1066714865917193 -8.445956716175889 1.9530121802965523
104 3 8 -2.393690752584525 -7.511245011238982 -0.039930729234961486
105 3 8 -1.447375167292003 -7.582586204725525 -0.2797456225556373
106 3 8 -2.8295630287899995 -7.539316947015301 -0.9092030747733986
107 3 8 -3.6139209399292875 -8.94909975241808 -1.315305036968236
108 3 8 -4.686597098036895 -8.552007878358369 -1.734979621452806
109 3 8 -5.496902978063604 -9.899327414340377 -1.7667623398084211
110 3 8 -6.398200280601089 -8.724410541050355 -2.0221732981133727
111 3 8 -5.988990852988305 -7.802956866427167 -1.5047965141735018
112 3 8 -5.758146284264006 -8.59076628458852 -0.35101445553288363
113 3 8 -5.590350357592856 -9.993146557254226 0.08521804832905273
1024 69 5 -3.5964770009691174 -10.683910476813443 -1.385038180264488
115 45 8 -5.935149111015752 -10.624575189831905 1.2190483048214604
116 45 8 -4.864031502983947 -10.242072956139168 1.8894620783734355
117 45 8 -5.0057006139049625 -9.608556594551958 2.7985089176737126
118 45 8 -5.248148994190798 -9.244586089062445 1.4923331912667395
119 45 8 -4.360506691617561 -9.348807884058683 0.5258809183321363
120 45 8 -4.788414813265936 -8.440411100383486 1.1323092141333944
121 45 8 -3.4073883509075777 -7.367519483023665 2.7308438374026527
122 45 8 -3.30802411407361 -8.092777902598877 3.948729926135975
123 45 8 -3.5185826428781573 -9.73371508320827 4.514642529587932
124 45 8 -2.4358350027046116 -8.618324986416935 3.9530014672059335
125 45 8 -3.6680999572118855 -8.64005204562082 2.9188377963528795
126 45 8 -2.890248261167648 -9.414723994303081 2.8594222861186354
127 45 8 -3.0107913303403775 -10.936741477442053 1.4587146827778814
128 45 8 -4.358226895846672 -10.968159325552719 2.576484282468386
129 45 8 -5.449842367037225 -11.383090808410529 3.284219586091378
130 45 8 -7.024454856089739 -11.62816357490826 1.933837601169892
131 45 8 -7.986301421238065 -12.973884996576153 0.6698365125571383
132 45 8 -8.419699142055768 -12.305601844812989 1.8727091126270836
133 45 8 -8.342211832826914 -12.865663545342288 3.3252470087886743
1084 69 10 -10.10556521389739 -12.826878569278708 2.024195752071804
1025 69 5 -7.048915445872274 -14.877425963632664 -6.276517793895212
136 42 7 -5.789774062987233 -15.472560723097075 -1.265388956050885
137 42 7 -5.8561816308036825 -16.899451488685038 -0.7506314670107821
138 42 7 -4.6479143860290515 -16.85572663987436 -1.3449941824044336
139 42 7 -3.512201634067935 -16.645885134862237 -0.5535085430924617
140 42 7 -2.2151493395441273 -15.575178466591124 -0.6994990594036194
141 42 7 -2.463757305429086 -15.11905706711136 1.0736327692711636
142 42 7 -2.110697969349923 -15.419006105641627 2.1461532613581786
143 42 7 -2.416622288335781 -13.923679315063309 2.679292650804915
144 42 7 -4.5121294450301725 -13.692376633981093 2.378986815256279
145 42 7 -6.105881399263082 -13.092547853917056 2.0548196801582597
146 42 7 -4.79889426514454 -12.442610323758704 1.4613395434190242
147 42 7 -4.41220780152983 -12.094520995717566 2.7384983062990265
148 4 8 -0.4451323274688842 11.3261335272693 18.56468108023717
149 4 8 1.124648729489515 12.2678370576061 18.30878187083194
150 4 8 0.9322806600430861 11.0691225792853 18.43564470833034
151 4 8 0.0007174351604011279 10.734723330429103 19.62840433862828
152 4 8 -1.1091204607262397 10.375703997044443 18.90086116428458
153 4 8 -1.2839114611092415 9.796101974520596 19.712154748155854
154 4 8 -2.3279304580711786 9.898314204371644 20.386651977550805
155 4 8 -2.2823695799363724 8.94990575136131 18.83640113712118
156 4 8 -2.884792690133988 9.219619348954643 17.665083465007378
157 4 8 -2.6676328564456813 8.13110518038669 16.670941038975393
158 4 8 -2.3155380939124757 8.215760693413158 17.642533811478582
159 4 8 -2.620366079389446 7.961987584792606 19.100534086195356
160 4 8 -2.8294541378334475 8.25706456978762 20.47471505665207
161 4 8 -3.054003678121364 7.04301769087832 19.647365962578373
162 4 8 -2.4563877562827643 5.537178123551344 19.858189671388992
163 4 8 -2.9604266759529536 4.527060257322137 21.070495031191527
164 4 8 -4.745375045175912 5.106152902777237 20.924105342966094
165 4 8 -4.203768837964437 3.451526130342489 21.925071818115832
1031 69 4 -4.500102572109949 7.223998850494226 20.115716256878923
167 69 4 -2.8032522611554422 7.943127487032013 22.57183666423759
1043 69 5 -4.456469927905783 5.366933707908794 22.984294615572743
169 64 8 -3.1845119429506012 3.2194304534034814 24.366886315579187
170 64 8 -4.01439020284351 3.7686946886532304 24.01885666109652
171 64 8 -4.717803203310182 4.25854944537384 23.39189671276782
172 64 8 -5.245043938933533 3.0713742823043075 24.348608154219587
173 64 8 -3.961054977899941 1.9255693482166436 25.183403405489887
174 64 8 -4.652713074177102 1.6787827710624785 23.9322854990655
175 64 8 -4.776499744257392 -0.06914823111140524 23.700563840898354
176 64 8 -4.465166568204734 -0.23385538717247298 25.084645020605333
177 64 8 -4.306144904051253 -0.13348791859433123 26.215262180105682
178 64 8 -4.751724230232049 0.6052507840621214 27.706322709870136
179 64 8 -3.865086175419672 -0.1832141696309213 28.066224085796804
180 64 8 -1.8353052111604662 -0.9193011089036208 27.844245531474236
181 64 8 -1.0579308893646975 -0.8171501871232837 28.965184510778126
182 64 8 -1.185066505125727 -1.8277327614199421 27.673100496408708
183 64 8 -0.29982577971047863 -1.2538236968912875 28.45166457891594
184 64 7 -0.4094236978852625 -0.06948148992384054 28.06857901412178
1028 69 7 0.5610014964376207 -1.2461032228438742 27.2749432728295
1023 69 7 3.292954086973066 -1.5263697332828348 26.336328446504503
187 31 7 1.072801216514225 -2.503942600288752 24.879696967946796
188 31 7 0.38618023944224816 -1.6036200426481597 24.288617805289203
189 31 7 -0.7934279569817964 -1.765848157580916 23.977264685382224
190 31 7 -3.2274869573585097 -1.4626056195163992 24.300835273302187
191 31 7 -3.3427191604484485 -2.450297009581477 24.022754277271073
192 31 7 -3.1414031752796223 -3.5855057847629244 24.104427801432518
193 31 7 -3.356734024628503 -4.924371397586669 23.770399762858887
194 31 7 -3.4411282420281446 -6.582662836550359 23.9268109192597
195 31 7 -1.7358778051300392 -6.783386556266484 23.531786678032606
196 31 7 -2.09590173318092 -7.315024072811191 21.278584989277157
197 5 8 2.81357667978342 -2.942683480187429 13.10782813635078
198 5 8 2.912437538043328 -3.1379813117062842 12.033783239373589
199 5 8 2.9478623975314444 -4.027735751988471 11.321370855576527
200 5 8 2.6310287471895037 -4.007578666252318 13.16074331061541
201 5 8 1.8583214309024134 -2.9304404817031835 13.328980406629274
202 5 8 1.3235611489738939 -2.102723687222381 14.631757459411215
203 5 8 0.5426277962523189 -2.6579289675461584 14.084525203815469
204 5 8 1.1968287500139487 -2.938026884450957 15.514392895650133
205 5 8 1.3778930884767446 -3.316473266788161 17.59961897337821
206 5 8 2.8694103312960997 -3.0952800794183783 18.058357276530206
207 5 8 4.885142457692298 -3.9783691085129673 17.413577493009537
1056 69 5 1.5196386696373865 -5.7380528458473785 16.62301498776806
209 66 8 4.063182594924283 -1.8449938467869123 16.138323515545856
210 66 8 4.0060485968657105 -3.7748447825022104 15.72254889883515
211 66 8 5.932962131159212 -3.4390438176837717 15.325083441355535
212 66 8 4.825266516976213 -3.0890625981769197 13.753501639006739
213 66 8 6.530028429251334 -2.9392010014318273 13.396399214804314
214 66 8 6.983179231762934 -1.859109161987243 11.874670015768798
1080 69 10 7.19824385152429 -2.703918539575964 12.512184536352983
1019 69 4 6.069166793875399 0.6102829794778684 12.128993983940857
217 30 8 6.462755221044787 1.0576194356687538 8.504933316605204
218 30 8 6.570300945559181 -0.11283569681168641 8.3705676001405
219 30 8 7.4143905049946754 0.9893735606769614 8.934581544962414
220 30 8 8.529635005046444 0.4138137412209984 9.698766712401456
221 30 8 7.45528292608298 -0.391536015752926 11.063138308090405
222 30 8 7.307927539901398 -0.40856824048532275 9.171683167119541
223 30 8 8.353992578696484 -0.6935342007542588 7.582422216265794
224 30 8 7.492786046438817 -0.061529698323290236 7.070649103966854
225 30 8 7.950902968170478 1.060090431490932 6.623579691585925
226 30 8 7.591678251549732 0.7012011521148709 5.0070614956871955
227 30 8 6.782782637113794 0.4114386935599497 4.30769313535139
228 30 8 6.679798983546551 1.4162910926689276 5.612726209521967
229 30 8 7.316841915775512 1.417009071171236 4.161185270076706
1054 69 10 7.988681578962524 1.8868448929031605 5.305085083214289
1076 69 10 9.392775858051715 1.7979015824673574 5.723630540834044
232 30 8 10.209524885761635 1.0010144881618175 5.289838904180581
233 30 7 10.83293394302238 -1.4847192289281763 6.637721584106295
234 30 7 10.019103280321785 -1.240648628435274 5.378809400582984
235 30 7 11.59515434194364 -1.9856207934341918 4.209212622218315
236 30 7 11.162149710517514 -3.412103019337517 3.5556180770759047
237 30 7 9.722029723725164 -4.382472202149503 2.8222602247755537
238 30 7 7.84195667010962 -4.550014097591307 2.133862570368531
239 30 7 6.556485721278541 -3.7117942652711298 1.2486200848584952
240 30 7 6.5899830967422295 -3.867961186130973 2.8512261301637714
241 30 7 6.331854833232907 -2.8481393946016946 3.8176596207843514
242 30 7 7.884011617601835 -2.831640576220552 2.763265358170813
243 30 7 8.129791222386277 -2.3721427055761444 1.8550027153645237
244 30 7 8.393735924793473 -1.6906373754641502 2.7547267251891907
245 30 7 10.098906059478832 -1.4514735211817198 2.7316381229626123
246 69 5 0.1321502557648574 4.406606226985739 4.060199269448243
1052 69 5 -1.6345149207643257 1.41102166254704 5.267212321128466
248 32 8 -4.869508440408379 1.9263256465867804 5.245784186437241
249 32 8 -3.964106452489239 1.4455351583283582 5.247186450375639
250 32 8 -3.280441012917716 1.5408498148540384 3.5273065881896866
251 32 8 -1.420827661921737 1.9365911210011906 4.30263606766768
252 32 8 -0.36382870148688196 3.5323527618531045 4.714918874738593
253 32 8 -1.053079215828615 3.4790489384122956 5.859145974695503
254 32 8 -2.143267513538067 3.5823329683149665 6.441917878455042
1071 69 10 -2.7816135953296457 4.384450080254047 6.953578533513817
256 32 8 -4.3723915866542225 4.4514184055568125 6.266678396397867
257 32 8 -3.944848168659701 4.036455447572711 7.903328984197561
258 32 8 -3.733824672353845 4.80371359267904 9.669533861932527
259 32 8 -4.090334126221715 6.777701002814033 9.402094814591859
260 32 8 -5.006529240335545 5.080334550574665 9.567567172837462
261 32 8 -4.283930386099016 3.987036817242312 8.973339808640924
262 32 8 -3.6735313010199504 3.6665937644252997 10.035180588403625
1069 69 10 -3.8426019347209555 2.4864156714320855 9.936038091562198
264 32 8 -4.760911704461903 3.9226193836170125 10.542750907736515
265 32 8 -3.261349186141972 3.591769058933968 11.201774788885599
266 32 8 -2.584312701994006 2.5553676403309713 11.030321950315134
267 32 8 -2.649342352535692 1.3812321709603628 11.136746018222832
268 32 8 -0.7990664656530535 1.3535850202916664 10.275137535479475
1034 69 4 -7.2360896441152525 -1.1461679645284724 11.971050877006963
270 47 8 -4.723271816512204 -1.9186644707409686 13.86801665199313
271 47 8 -5.322910210042866 -2.5061829094550974 14.815888732480024
272 47 8 -3.7761522769528106 -2.0433097298954426 15.331113853433173
273 47 8 -4.262834476482846 -2.9776630103346737 14.394609671393269
274 47 8 -4.3955380931109085 -3.9214190915505225 13.22412842390021
275 47 8 -5.464755457481734 -5.145677616276631 13.047346262901932
276 47 8 -4.210247869794625 -5.448644860911325 12.020293006082186
1047 69 5 -3.482127679617552 -1.6703192693537012 9.914316745633402
1012 69 4 -3.979243054563195 -1.7718850828345922 5.521641620637392
1026 69 4 -6.34349819025432 -5.684539489998612 9.995000494921063
280 51 8 -7.776381940833129 -0.3790883697621362 7.902653105431519
281 51 8 -7.052860473971578 -1.5043250962937396 7.514795013185388
1075 69 4 -5.842902405709866 1.401168604251174 9.650371978379868
1078 69 9 -5.574656209744529 -3.4437707193588296 6.790871055163238
284 65 7 -4.134176116664434 -3.73392078485755 6.706438943624677
285 65 7 -5.098542039124923 -3.42625244328008 4.8653462651444235
286 65 7 -6.284717399208469 -2.185206681690926 5.87171470932408
287 65 7 -7.049536602006209 -2.1382990191346503 6.540455569735141
288 65 7 -7.840977763377415 -3.1786657340461892 6.4567028222627965
289 65 7 -7.712271824219503 -4.147929732204919 4.974965215714957
290 65 7 -8.34502088369482 -4.93509002627737 3.870018085426843
291 65 7 -10.198196149800387 -5.3837655785594976 4.194198053061791
292 65 7 -10.784055965637377 -3.567797306097238 4.6453570778204565
293 65 7 -11.65589011685165 -2.457214147909855 5.741757701312982
294 65 7 -11.527924056566658 -1.7907053977220422 4.489106625883178
295 7 8 3.2624138505777616 14.286681578354615 6.258274965881226
296 7 8 1.983193574785931 13.75852307105899 6.540923481002776
297 7 8 0.9804979476810607 15.145235498045556 7.381072935450837
298 7 8 0.20297655140537327 15.214353663528595 8.199805319453306
299 7 8 -0.19692501059549106 13.198728281393386 7.691095210566322
300 7 8 0.8631446772897833 13.06582737570595 7.473565965431504
301 7 8 0.31562724313879004 13.22416161928326 8.863494709071993
302 7 8 0.24983765837758243 12.865032928658541 9.855719367946067
303 7 8 -0.041407050385583184 13.11120652079515 10.958247824207358
304 7 8 1.2613472248398396 14.072228595854046 10.828009736506473
305 7 8 1.044317515299488 13.716327840136593 9.538472823496047
306 7 8 0.45411435579609993 12.128574041436757 8.888464506488239
307 7 8 1.6660697228616532 11.870579802075332 10.469715737438943
308 7 8 3.186210269370247 12.759726195692837 10.018776544080922
309 7 8 4.0712241836921015 12.19857573060482 9.607854695317274
310 7 8 3.929005101269009 11.93040468425925 10.832340805094452
311 7 8 2.945419861061071 11.495960136893187 10.2272805375636
1011 69 5 6.0695558616567125 9.650755591040701 6.116219484188567
313 46 8 3.9340548963485324 9.230050089761338 8.363868252926707
314 46 8 3.1514039194048316 7.747226205636316 8.792442908851068
315 46 8 3.6312290180272204 6.642168898641144 9.58912396345935
316 46 8 2.3488568216732317 5.706770243138648 9.20669629992985
317 46 8 3.311636402420731 3.775528739516197 8.939149666719958
318 46 8 2.6978757674519622 2.7295514268346057 9.180966287846166
319 46 8 2.959303762481622 2.128882481510951 8.30252222390932
320 46 8 3.2196214471069875 1.1039522783272901 8.446625726339501
321 46 8 3.9842888691617175 1.2548353692122736 7.154357911415529
322 46 8 2.716268885791857 1.7653169269691393 6.9806628825163335
323 46 8 1.598525355516103 2.4973991779702276 7.505545212156083
324 46 8 0.8816253413680664 3.7962828465850618 7.339800481208435
325 46 8 0.0007653268649427118 4.232367610102458 8.49849205210203
326 46 8 -0.7185763840866572 5.151300889467778 8.82289901281049
1064 69 5 -0.8475644526541463 5.297547040862207 5.067156614470844
328 2 8 -1.5226148510639845 2.140436152665375 6.708776172362519
329 2 8 -1.3427079359225962 3.7144080074673687 7.390710221169063
330 2 8 -1.3203721315970245 2.687151053823104 7.646592132896897
331 2 7 -1.685447408413271 1.5686546764505984 9.031147180888976
332 2 7 -0.2740525767984595 2.1137076269966126 9.537968670628288
333 2 7 -0.9876947682318423 3.5736375398333973 10.438772064899748
334 2 7 0.4204325066966523 2.93120635084637 10.390979561622899
335 2 7 0.7505779348154629 3.93781909293928 11.464334413220932
336 2 7 1.918652475315963 4.302670522159505 12.181976282030707
337 2 7 0.9531063702822905 4.194378621152468 13.635369906346973
338 2 7 1.080525569068696 3.1213478246576547 14.601438155830314
339 2 7 0.06664070590262018 5.0525139795798495 15.596624352552583
340 2 7 1.1145381040560745 5.244450260026195 16.82619961682037
341 2 7 0.5599557447556482 4.708099873524005 17.4155609709279
342 2 7 0.9212003398956854 5.717167394310219 17.986874550261405
343 2 7 0.06396383000405548 6.18257221056775 19.466477565891672
344 8 8 8.432653713917787 19.027406291310225 -9.22013109047832
345 8 8 8.455824587432902 18.89862449051509 -8.155608002724325
346 8 8 8.120138045856036 17.581061717534606 -8.895987815124467
347 8 8 7.456950394220728 16.657005012959807 -8.35008302637344
348 8 8 8.439542001021447 16.284546006623746 -7.302212891035884
349 8 8 8.312396841509088 14.515324490351112 -7.60748375077428
350 8 8 8.657983847009222 14.29662372368617 -8.597641813828531
351 8 8 7.1459264308850265 14.647458302983154 -8.565063647167563
352 8 8 8.727118066227524 15.358724900628303 -9.66490998265878
353 8 8 8.979872572044094 14.494692299944033 -10.827786149915758
354 8 8 7.537436104919756 13.678713205173322 -11.724262773470935
355 8 8 6.973111608345862 12.634319650791065 -12.459216806227774
356 8 8 7.479178029403897 12.135697439711903 -14.039222830376657
357 8 8 7.716754295621503 11.184724659548843 -12.052655661533429
358 8 8 7.9867698523970425 11.389943843676017 -13.277907775858804
359 8 8 9.629360268574006 11.12167366408252 -12.771876387203381
1057 69 8 9.052258198137247 6.846657591620877 -11.983435322389914
1048 69 5 9.314311899100577 8.741985385007332 -10.281936170183513
1066 69 4 11.830573187681996 6.776484301500023 -10.830759500105543
1051 69 8 12.1684852287675 6.359283668051932 -12.162866246250791
1077 69 5 7.871945564783811 4.173954777405499 -12.065989774068887
1063 69 4 10.22124985009989 1.1827968666626374 -10.074314870211612
366 35 8 8.494860923921022 2.7468009626999095 -11.794973505606096
367 35 8 8.688420317435124 1.764898204052594 -13.029458056688686
368 35 8 8.429802072489881 1.671196559516362 -14.186683711616471
369 35 8 7.924111570202758 2.667580496658216 -13.13177168585215
370 35 8 7.113961500022176 3.3591543420765997 -14.02452455869886
1038 69 5 11.086145348624811 7.968878575414818 -13.887726872962078
1035 69 5 15.572167430505942 7.946962942185428 -18.579748539953616
1083 69 10 14.204928218427716 6.684707518583677 -18.184995107202283
374 43 8 13.687644677132466 5.382960855455075 -17.719127742194246
375 43 8 12.664410734066244 5.890247247410413 -18.20863997152583
376 43 8 11.272320311491626 3.421992193644199 -18.000226779902746
377 43 8 12.484438337779082 4.194409123310998 -17.060766785150648
378 43 8 12.84208314663023 3.131050315481418 -18.007731636751835
379 43 8 13.72176693281244 2.1727722487093244 -18.22225654743997
380 43 7 12.607344959417071 0.9704860823097132 -18.554292966795725
381 43 7 10.60502927655207 1.274943166999233 -18.80964928851927
382 43 7 11.83412736278269 1.0988670697943448 -20.243524391483582
383 43 7 11.080102212662071 -1.0157978599932738 -20.48770908207844
384 43 7 12.624371626495977 -0.3632515528675969 -20.2438663910398
385 43 7 13.634851979609959 -0.258570854603439 -20.69572728479539
386 43 7 14.782322305522142 -0.45603260168006166 -21.019623129901092
387 43 7 15.437594806454666 -1.56144136268926 -21.03762374724262
388 43 7 15.661021330688232 -1.7005861398744693 -22.858815750550058
389 43 7 15.98246755689052 -1.5970920904829533 -24.710362100109332
390 43 7 16.450909231079088 -0.0898272182793128 -23.73677171612496
391 43 7 17.44453657794021 -0.4220220726197488 -22.28822341801151
392 43 7 19.442058643115217 -0.609867569325935 -21.689827560616138
393 9 8 -4.795971986634425 -2.9406046958747494 -16.07796425029847
394 9 8 -5.884651982105429 -2.589369346633582 -15.905613065732002
395 9 8 -6.888737961028443 -1.9995060985232118 -14.575028796483375
396 9 8 -5.517444265767388 -2.7750870438150064 -14.671357609476175
397 9 8 -6.69938824342977 -3.5797287020613466 -13.883051517344194
398 9 8 -7.869130471593887 -3.1959603188189356 -14.312940756348926
399 9 8 -9.036562504919633 -2.671980712315375 -14.387605802709473
400 9 8 -7.789449491432349 -2.5076817217147758 -13.110143263173642
401 9 8 -6.727871739657934 -2.2747740576972064 -13.358099039609971
402 9 8 -5.9090853460948045 -2.336720559770774 -12.309286373625934
403 9 8 -5.226817437871516 -1.8251221089000633 -13.09540741696579
404 9 8 -4.541621898360419 -0.32608483647817 -12.973239577880516
405 9 8 -5.682731610484968 -0.6100289683392192 -12.20717412179652
406 9 8 -6.699411926866608 -1.647462560984952 -10.938778821154562
407 9 8 -7.96477621122897 -0.6249441512784499 -10.379242909083803
408 9 8 -8.319437664630618 -2.5899977565857992 -10.882484811139266
1010 69 4 -2.3215997953926633 0.5071577512202741 -9.088616018531463
1022 69 4 -7.722005882924346 3.8071126525972794 -5.798016996265972
1016 69 4 -6.877651804479985 4.512800568085993 -6.107414276121123
1029 69 4 -2.390494318897747 -3.8211523198757598 -7.366175901197219
413 53 8 -4.266064293586353 -2.021228174464029 -10.056333893622044
414 53 8 -5.041677607514888 -1.543617963363229 -9.149305401314262
415 53 8 -4.114082969050162 -2.1114963957570883 -7.774575909922081
416 53 8 -4.149687617866039 -0.31390315417183895 -7.049484615693323
1021 69 5 -8.601788926366188 5.069276132942555 -9.88020657444669
418 33 8 -7.438757402876737 -1.2240884822590397 -8.345670710183748
419 33 8 -7.5914933010954035 -0.3559574047109611 -6.0518033371274385
420 33 8 -8.573551376293409 -1.3521247359813786 -5.176471189198151
421 33 8 -9.651513575085175 -1.3350565921216606 -5.998894349657001
422 33 8 -8.534303349377545 -2.1042990413556595 -6.129288884178581
423 33 8 -9.253023012611676 -2.7001769886223954 -6.99709618896008
424 33 8 -10.901763986876661 -2.7783836129259556 -6.389565166994612
425 33 8 -10.42534107091258 -3.654691264525903 -6.286122935221822
426 33 8 -9.839826633235816 -5.096089267989683 -5.529005670323379
427 33 8 -11.297724878392497 -5.174441128731822 -6.517135487394977
428 33 8 -12.031451134858491 -5.897455637007751 -8.040669395042212
429 33 7 -12.673339643065304 -4.906538376893032 -8.695630429695331
430 33 7 -13.968871728526254 -4.525160974067727 -7.228475899078235
431 33 7 -13.493589426724938 -5.3779698403582525 -6.453574840982585
432 33 7 -13.945755676002719 -7.701232549589416 -4.606318803391723
433 33 7 -12.990051561084135 -8.137726042103683 -5.558347647884183
434 33 7 -11.794269153995021 -8.299552975076585 -6.775525848313873
435 33 7 -13.518828976786347 -7.940628774193277 -7.752994096920937
436 33 7 -15.115063456150017 -8.28201251320065 -8.149319946044795
437 33 7 -16.88578273690674 -7.82373170755901 -7.657051721020829
438 33 7 -16.55581438598524 -9.048441366593156 -7.238454647468072
439 33 7 -15.614269927797356 -8.04081006545739 -6.361875498810803
440 33 7 -14.515091925897892 -8.875618079503475 -6.089529047097357
441 33 7 -14.894463206587957 -7.76812070769889 -5.104161118623221
442 10 8 -0.4761495879192614 17.081688446797656 1.7129508633340689
443 10 8 -2.267375448492402 17.215255967225918 1.3106368207149803
444 10 8 -3.047301567075913 16.592671340590996 0.7424032611254562
445 10 8 -3.3348889627211715 15.32883460051598 1.029733100116034
446 10 8 -3.9111473712242093 16.3878544669142 0.11125700774598517
447 10 8 -4.85668331767628 15.09757023553799 -0.4284884357107548
448 10 8 -4.383840485190597 14.482070587707359 -1.8929229610655507
1082 69 10 -3.3691541423502605 14.352496687812671 -3.170666671899237
450 10 8 -2.8940623548377618 13.620073102197262 -3.938788657480607
451 10 8 -3.3086820500036906 12.895402166233199 -2.5476747639277004
452 10 8 -1.7991712628927437 13.18529621115849 -1.8300792538471626
453 10 8 -1.240445298117493 12.363209477758133 -1.3581354121908125
454 10 8 -1.9134674023888452 10.761798098952818 -0.7076046531673146