# Generated from readdy-to-lammps

1005 atoms
614 bonds

10 atom types
1 bond types

-30.0 30.0 xlo xhi
-30.0 30.0 ylo yhi
-30.0 30.0 zlo zhi

Masses

1 1.0
2 1.0
3 1.0
4 1.0
5 1.0
6 1.0
7 1.0
8 1.0
9 1.0
10 1.0

Atoms

1 1 8 -14.040658891875362 -7.830119230767729 -9.403464331302528
2 1 8 -13.362792822146965 -9.225074014576293 -9.447697125473493
3 1 8 -13.69537412078794 -10.169561176639093 -10.4982295231129
4 1 8 -12.247952767336457 -9.332246293784067 -11.579387681057803
5 1 8 -11.813129270110368 -9.238785242330318 -13.067679475526656
6 1 8 -12.252696913476502 -8.08016273937029 -13.365800636458031
7 1 8 -12.498527701174613 -8.280762303931292 -12.33182538850896
8 1 8 -11.53167537070056 -6.656728181063355 -12.846397391878211
9 1 8 -11.038615419115652 -5.7151204563002445 -12.168357389993899
10 1 8 -10.942312903388391 -5.2083163641210835 -13.555026577700163
11 1 8 -10.204589634994012 -3.966612288320412 -13.395289752265931
12 1 8 -8.929348544753482 -4.884802967968748 -13.675271962505475
13 1 8 -9.505088590453887 -5.028323182789676 -12.188174141851396
14 1 8 -8.537046526970974 -7.249502531584672 -12.672880212255961
15 1 8 -8.013292988906153 -7.8546145989743765 -11.798711011583837
16 1 8 -8.147938231412443 -6.580249877459748 -10.977577419229254
17 1 8 -7.456677775520139 -6.472765406292986 -9.706195843583629
18 1 8 -7.9816394269284725 -7.2507282474750845 -10.12917094999504
19 1 8 -8.837612959011908 -7.09878921061771 -9.127808500891012
20 1 8 -8.931241806110604 -6.213054647001247 -8.44253544079382
21 1 8 -8.094371440803313 -7.268027148058751 -7.739999839885684
22 1 8 -7.163152815571469 -7.874441207407053 -8.13099293272791
23 1 8 -6.989896541780765 -9.367095733571755 -7.873720527543614
24 1 8 -6.709685483066709 -10.289724724370398 -8.909027949188847
25 1 8 -5.478399222519966 -10.220762206402561 -8.238777737644702
26 1 8 -5.785372299198884 -9.614832674606685 -6.4353739043205955
27 1 8 -6.065184240859939 -7.886252367292618 -6.470808836816903
28 1 8 -5.796221864737038 -8.236326870567469 -7.869010795151944
29 1 8 -5.950468553458145 -7.92197490901639 -9.314463658421122
30 1 8 -6.388282492711203 -9.383152578078313 -9.841435812879892
31 1 8 -5.954213914939642 -8.77316135931113 -10.982683160598965
32 1 8 -5.0765406984230355 -8.944455987888487 -10.007095288970786
33 1 8 -3.692564291426164 -8.42799568552172 -9.545257067724616
34 1 8 -3.2565702164331216 -7.21422289863349 -9.965624998825847
35 1 8 -1.2610919824038223 -7.218624027382839 -10.460164294141775
36 1 8 -2.5692667438591945 -8.559026875530966 -10.918081254166855
37 1 7 -1.91167455271968 -9.424159063660381 -11.506008974387212
38 1 7 -3.0614661694674785 -9.460299504251012 -12.336512226868393
39 1 7 -3.8755436510373364 -8.848453609737804 -12.416927821074353
40 1 7 -4.360703938165602 -7.836761305107621 -12.002535402761396
41 1 7 -4.285575295916365 -7.595433068547742 -13.303359610894688
42 1 7 -5.227645630057562 -6.970684208078636 -12.623428964779698
43 1 7 -5.185404443125592 -6.266531446383295 -11.73665337256061
44 1 7 -5.2476445945689845 -5.773658083673269 -13.33405255179719
45 1 7 -3.7742066210180116 -5.8179041303005 -13.474870858933068
46 1 7 -3.4598712128696203 -5.224321960969928 -12.474899599774307
47 1 7 -2.0156559045944866 -4.9055905540468485 -12.398033850604067
48 1 7 -1.0454301247493238 -4.478827303629373 -13.357283842483168
49 1 7 0.3794661546658281 -3.5790530153161035 -11.61201342099999
1050 71 4 -2.6152309955681 -2.9390233285023135 1.1796173745716545
51 71 5 1.5453975796649617 -5.190864438581261 -7.873475285070948
1046 71 5 0.7608559003554949 -5.496211485592748 -1.3921603450195834
53 71 5 -1.1418103586744328 -5.85363893897936 -0.8567046945163728
1042 71 5 5.170231880946916 -2.651648583545575 -2.5463745224312446
55 54 8 4.34240392692437 -6.339647248285079 -0.7094088674240007
56 54 8 3.9546137328929696 -4.652611560309764 -0.8150879502272275
57 54 8 3.811183105739278 -5.292689356751991 0.32284798061530506
58 54 8 2.9980491807334992 -5.869866518429885 1.1189491760329473
59 54 8 2.8427941622875426 -7.498479298060709 1.0549463880821999
60 54 8 1.935562162468671 -5.488869605919161 1.4758866660764667
61 54 8 1.022394858725588 -6.108718227199384 2.79549886678442
62 54 8 0.27235227976620324 -4.841025858532698 2.517187569371569
1007 71 4 -0.9139465284235538 -10.415420380560821 7.704780064004321
64 26 8 -1.0329863372967372 -6.471924772473779 0.40172185916579256
65 26 8 -0.25676876457202313 -6.183806011010149 1.5768290303903274
66 26 8 -1.7316943122185149 -5.906187402757321 1.7554001830846573
67 26 8 -1.3016638909358211 -5.259794073225615 2.7968654521924146
68 26 8 -0.9822893094690727 -6.310389886146809 2.846748433811883
69 26 8 -0.7525190317293314 -5.224732710472597 4.0384646097636265
70 26 8 0.19426022255010186 -4.543611267315325 5.229967854777358
1036 71 4 -2.8745864047762004 -5.063772470259399 5.728722813598829
72 71 5 -0.6175021844203955 -0.998224881522807 -0.314704131035671
1009 71 4 -1.25517008409658 -3.3546019250690486 9.119937811490184
74 56 8 -2.2562187169311803 1.8580029048310875 0.5291262653459253
75 56 8 -1.6944564962591466 0.837764805172514 1.5826462859649009
76 56 8 -1.740704071253187 0.18643360722336708 2.672973435615303
77 56 8 -1.9900869611022458 -0.5804360975396747 1.0898647964920487
1074 71 4 -5.736116766484268 -0.4492645040394175 1.0948446337109552
1037 71 4 -3.5988854347566184 2.373383886721359 7.504544267513469
1017 71 5 -6.761320582303 1.3807823889471087 6.370396479256186
81 59 8 -4.362784211090237 3.688900743077955 2.7004700542565128
82 59 8 -3.2671125376799157 3.920719107780827 3.326593663537494
83 59 8 -1.838710735454299 4.185298458287242 3.3546459230766046
84 59 8 -0.28595415390756024 4.754409256561859 2.9844434261138373
85 59 8 0.9002598778251151 4.189573006503505 2.1111025743748457
1079 71 5 4.792781437711236 0.8897856165212692 0.8053037911740022
87 64 7 3.0264256575968216 2.3191689407422813 3.652440491269062
88 64 7 2.2521192323310966 1.5224390577066134 3.797859126223086
89 64 7 1.8696989262157315 0.9633947575400515 2.6055331322495534
90 64 7 2.4644534341781683 0.13256501822696243 1.6997440333350131
91 64 7 2.8203171117660815 -1.96906505181583 2.265510330525576
92 64 7 1.796059957761795 -2.374167298663564 1.7794231534326803
1044 71 4 -1.3543708766074523 -2.3557152196029074 -3.5413272940805745
94 58 7 -0.05310600775128163 1.2678467705123724 -1.0948283543970796
95 58 7 -1.5395447883912816 0.8444876931407926 -0.8108929399320013
96 58 7 -1.7779763441022394 -0.6062888815751827 -1.7628396803065585
97 58 7 -3.0490627152599843 -0.5113123159921343 -1.2767857941179264
98 58 7 -2.6804477133244538 -2.4562435919158254 -1.7297837826235345
99 2 8 2.0789479061214164 -8.779165865857399 1.1519704525685228
100 2 8 0.8308115308652023 -9.200327892068126 0.9079586852149555
101 2 8 -0.46121516841666776 -9.1922427372373 2.0915787672456534
102 2 8 -1.1136220832357702 -8.5334630878296 1.3703484180626266
103 2 8 -2.1904069033493268 -8.618308078395442 1.3804836725895817
104 2 8 -3.3123278148146116 -7.670983899706948 0.08039440767770557
105 2 8 -2.2875834768074927 -7.268603588335985 -0.3657819740303456
106 2 8 -2.1804893996316803 -9.005393362009167 -0.1752072074392078
107 2 8 -3.3759855587191727 -9.479867782315496 -1.0493410497373297
108 2 8 -4.439375933741761 -8.770995040125342 -0.8443920251788659
109 2 8 -4.4702023338773795 -9.994499425995235 -1.2330105661747373
110 2 8 -6.094602624509619 -8.964800648053759 -1.9551015908091913
111 2 8 -5.981623327832421 -7.630201511957745 -1.7916055290744155
112 2 8 -6.357431170175248 -8.926041698298247 -0.44105046282497573
113 2 8 -6.566724232311045 -10.04054263878916 -0.5061213879252332
1024 71 5 -4.515747358256029 -10.938213234052267 -1.9505128672830476
115 44 8 -6.6647491718510965 -10.012588706860635 1.3304121612167146
116 44 8 -5.648483941100789 -8.936297047350905 2.641335251342369
117 44 8 -4.265920402380637 -8.58242534615244 2.887044566960854
118 44 8 -4.521465917788048 -8.361933399123282 1.6007573755092208
119 44 8 -4.096819866259491 -9.03297610772797 0.25457919803671175
120 44 8 -3.58226283154947 -8.536459905212679 0.997316893481331
121 44 8 -2.51922686053557 -7.567407768063689 1.8175325774419644
122 44 8 -2.9564618183724947 -8.145754730300531 3.4352675732221027
123 44 8 -3.1118623390622817 -8.654921754405967 4.427766824212571
124 44 8 -1.8957324818731869 -8.656030529775228 3.924890594408011
125 44 8 -2.7948797270285093 -9.334266874696622 2.9955287475166754
126 44 8 -3.0359891836907416 -10.318235122193132 2.1804063834985516
127 44 8 -4.317273126353511 -10.476493815226979 2.7002794244224537
128 44 8 -4.36775229876357 -11.246400295233723 1.7172678153644854
129 44 8 -5.489017737932512 -11.870033933335101 2.4758920686459036
130 44 8 -6.8623132228362325 -11.748562452682265 1.4504674077891033
131 44 8 -6.761631596758221 -13.262864401007127 1.146693426175371
132 44 8 -6.639788208878658 -12.694697243280334 2.6453317402934426
1097 71 10 -7.514676806524486 -13.607540593811331 3.056689479354383
1084 71 4 -9.525571731085002 -13.432513121428482 1.5061299848457317
1025 71 5 -6.359938989784775 -13.455166398527261 -6.138096041833094
136 41 7 -6.112087384527629 -16.41209453108093 -0.6026982658132933
137 41 7 -6.409502742672509 -16.97021671364373 -1.5111613486521718
138 41 7 -5.155977960660583 -16.374534088851096 -2.5754339804786555
139 41 7 -3.083917104347515 -16.53697002270257 -1.2897221721482104
140 41 7 -1.9988453978845595 -15.50455643181662 -0.5017219873258464
141 41 7 -1.2581677346065305 -15.791999631258106 1.1878567400862392
142 41 7 -1.2194316750370913 -14.030597275172136 1.8272002553522393
143 41 7 -2.794681589048376 -13.582533588081061 0.9440529255621545
144 41 7 -3.019451456270488 -14.102027807529323 2.316154245073653
145 41 7 -4.434435320177909 -14.572266122154671 1.9400262809962365
146 41 7 -4.240226915611267 -13.097615170081816 1.111548980614117
147 41 7 -3.749365858640423 -12.965512188742538 2.7727479849798105
148 3 8 -0.6743293607013109 10.156186091259684 17.701414109714353
149 3 8 -0.2000095785891146 11.464871205795667 18.996771846099126
150 3 8 -0.2997566291092721 11.514716507144083 20.60949342828117
151 3 8 -0.17733691797522083 10.797449831279213 19.82427782131138
152 3 8 -1.1919601279195167 10.89503946688402 19.109783445829315
153 3 8 -1.6068124510431603 9.043660984969232 20.712178754850427
154 3 8 -2.804385308898322 8.394654310551543 20.490952452811413
155 3 8 -2.2838922341073062 9.241845487402873 19.40572678444445
156 3 8 -3.63100780199877 8.90903339977127 18.263798062095272
157 3 8 -2.679415903087959 9.203705693251978 17.662453510000717
158 3 8 -3.301248749662663 7.7568037613694 18.74752634793638
159 3 8 -3.2789905093176275 7.681833908584135 19.86156211919823
160 3 8 -3.7632643824534524 7.1980222415724056 20.969896456540003
161 3 8 -3.564785522130804 6.111814511375357 20.145683631485866
162 3 8 -2.7982781436780906 5.477818833186667 19.444180766468367
163 3 8 -3.2602104751557164 4.327695833789679 20.078586437714442
164 3 8 -4.155074752615084 3.4794532610210296 21.716731951732005
165 3 8 -3.3868363947329456 4.615900737090555 21.61043172747303
1031 71 4 -4.928614694190453 7.22364607380381 18.552809563143125
167 71 4 -4.239301237438406 7.442068997480381 22.425663558260705
1043 71 5 -2.4639668054100805 3.7344508546443644 24.44538100012913
169 65 8 -4.332206637157721 2.7223882166075697 23.942940725473086
170 65 8 -4.543137083500012 3.573328617746626 23.168314539138823
171 65 8 -4.0155838824919305 2.7776852106626415 22.581174448290326
172 65 8 -5.393915202534397 1.9149953902158618 22.435361540589884
173 65 8 -5.599990270867475 1.6061323474022355 23.944647337120667
174 65 8 -4.714981645163126 1.2356364354071272 23.915168302887466
175 65 8 -5.058677408902512 0.6399066481580276 24.76974492434735
176 65 8 -4.511686363805027 -0.6351094345454527 24.569008286362912
177 65 8 -3.6605995126884503 -0.8870731975243696 26.198026946420423
178 65 8 -2.0575743487048483 -0.15891010308694006 26.322170994042732
179 65 8 -2.0633284609908924 0.6969379301661566 28.071253443951555
180 65 8 -1.1896908782650735 -0.7429415330972057 26.6593922987738
181 65 8 -1.979088304419645 -0.4207340039490816 28.307190604715622
182 65 8 -0.8898613533420658 -1.5238347184048155 27.9015094318386
183 65 8 0.06929880242907205 -1.2195877774466155 29.361186376997466
184 65 7 -0.7281289835865979 -0.6182247484038119 28.31975284799316
1028 71 7 0.3376127073621826 0.5092589669330255 27.208136479648463
1023 71 5 4.3511893796480345 -1.150897853410631 25.413996261468434
187 30 7 1.1648630047006892 -1.2781256377255894 24.397568598297298
1091 71 9 0.5656749344982779 -2.183606122626155 23.967440479584177
189 30 7 -0.03725177091381355 -3.0910744347571217 23.407235143569583
190 30 7 -1.104597119816103 -1.351524201488596 24.497977255870136
191 30 7 -2.0052582139472777 -2.8826962696742258 23.075309980062475
192 30 7 -2.7053337155347212 -4.094032730470355 23.42615559345661
193 30 7 -2.7607555133125348 -5.324262229231897 23.775152341363917
194 30 7 -3.8099369065752375 -6.000704469242252 22.498135903992374
195 30 7 -3.1359236783656352 -6.997180725604192 21.481519342886795
196 30 7 -2.9343442832386146 -5.51451832270039 21.62795153612421
197 4 8 2.7378068615180533 -2.3608718263874615 12.287184019226187
198 4 8 3.3284144488114333 -3.6608340188770305 11.889164637896297
199 4 8 3.907353611301365 -2.7812313237909776 12.700929898566365
200 4 8 3.1119927898292805 -3.724891126857662 13.250661904610144
201 4 8 2.0491499869217202 -2.593828755344986 13.767657607871199
202 4 8 1.4157537458379559 -3.2270917735582967 15.206656846735559
203 4 8 1.936159511407884 -3.020721197157299 16.381142509341057
204 4 8 1.8893842139001156 -4.6721867802420896 16.667179999629155
205 4 8 2.6337223262670673 -2.47492713961489 16.81978955154607
206 4 8 2.677614056292671 -3.100202447166411 18.482323966837566
207 4 8 3.6176500775626694 -3.206315678151687 17.444136441478214
1056 71 5 2.734285159835959 -8.415715867464048 16.269448164839606
209 68 8 5.7476907525089125 -2.672279616565544 16.49179513537854
210 68 8 4.72630802481505 -3.541844232857657 15.423714837978647
211 68 8 6.326907268736788 -3.3390870054721398 13.987939086486781
212 68 8 4.942995337312371 -3.3443359908875188 13.36757510295418
213 68 8 6.003403830211428 -3.465300015081365 12.868896246226226
214 68 8 6.849008143596419 -2.304027031548999 11.95063317453932
1080 71 10 5.787701176801241 -3.9793799198493103 11.295564275543542
1019 71 4 6.714862303902544 0.5349878333888503 12.15755409500549
217 29 8 6.602048043422364 1.3890364272262723 8.458335271748423
218 29 8 5.570630851689022 0.8240454444819336 8.801652606813569
219 29 8 6.832654710520572 0.2429256768242794 8.560914202234736
220 29 8 6.162979930569848 0.23306725163460382 9.630080739244072
221 29 8 6.683044559588479 -0.773163454196326 10.06783027850883
222 29 8 7.9471504500146395 0.2278611268524723 10.311762645361961
223 29 8 9.042275672305408 0.02029684035833261 9.655262483626089
224 29 8 8.675065282533481 0.6153577722013521 8.13381690169444
225 29 8 7.147246758041498 0.6062358323941246 7.225127102766198
226 29 8 8.187806132554817 0.5668809322498634 6.849819364946859
227 29 8 7.742193999513359 0.054854396475116245 5.512604113193431
228 29 8 7.6354661531209596 0.659483577516251 4.365242633594892
229 29 8 8.963257197736382 1.8043111190170782 4.328802940083801
1054 71 10 9.404077457596996 0.6135030176734534 4.959454030064868
1076 71 10 9.750800928555112 0.9111390198751573 5.870384159757381
232 29 8 10.96805800619021 0.6724158516628705 6.0361932543843855
233 29 7 10.396370114007595 -0.09340054382833064 5.435070785042043
234 29 7 10.368545701531819 -1.3696257820144955 5.683104866480832
235 29 7 10.163014866538605 -2.050641288478139 4.601792564930351
236 29 7 9.927905151838868 -2.6031224704489264 2.635953394837719
237 29 7 9.201328138998493 -4.0380389051619865 3.467626154189794
238 29 7 8.804441711433924 -4.627972362406798 2.2898841197438866
239 29 7 6.8626573433969185 -3.904539851326586 1.9443005090931065
240 29 7 5.4877472133103185 -3.5560971635205294 2.6735570442094274
241 29 7 6.492600348234085 -2.6736352769140534 3.245728190681622
242 29 7 7.545349350318549 -3.1541413388337753 3.325898080324626
243 29 7 8.192343918246365 -2.415142500602744 2.7933516264645974
244 29 7 8.40146811885852 -1.0185638992584298 2.091147702931702
1090 71 9 7.2700559784903 -0.8503639035548255 2.2827058380625513
246 71 5 -0.9033474231106465 3.8244780519290056 6.161638868597075
1052 71 5 -3.1304059438881215 2.9909988184797784 5.2293865456655935
248 31 8 -5.1139265528672375 2.8052259915391957 6.4079261938798995
249 31 8 -3.47802892565512 1.727130388972728 6.136201703452807
250 31 8 -3.01699218482587 1.246599655102215 4.766078349428865
251 31 8 -1.8833584896337023 1.6838382702398191 4.249135708666077
252 31 8 -1.176358800529803 2.6287911045349373 5.865126949811615
253 31 8 -2.5782866244699174 3.9149926495761287 6.111936476454171
254 31 8 -1.9094349389350984 4.180997150661451 7.4760811678875525
1071 71 10 -2.9888037102863225 4.833880828890648 7.393725866925122
256 31 8 -3.83229416001682 5.288830202342286 5.8775861071119015
257 31 8 -4.410980595290647 4.323682962102583 6.803488942041028
258 31 8 -4.468074383724714 5.493770537079978 7.62506567113869
259 31 8 -4.507045665841375 5.709265239249648 9.651110901722728
260 31 8 -5.291680993814742 5.239186283837687 11.057363461038122
261 31 8 -3.827972451726033 3.701287879184566 9.593009647339638
262 31 8 -3.5286181114185835 2.974943317305381 10.37884268753807
1069 71 10 -4.723277228437054 2.695367842264442 10.301280709765312
264 31 8 -5.554772162823137 2.0330349122643785 11.406286684837205
265 31 8 -4.1156727655226835 2.6456595957202125 11.99108145006967
266 31 8 -4.058374339693732 2.003495176036065 10.577132901856693
267 31 8 -2.3324398365900554 0.625110853679734 10.949799048609162
268 31 8 -1.3107967730543224 0.7067534893656606 11.107339626932081
1034 71 4 -6.691468357342552 -1.6441875850578151 11.609502320863458
270 46 8 -5.699240353246876 -0.8196751680684793 15.019317383046829
271 46 8 -6.115710165739324 -1.8215234047020514 15.279981916122239
272 46 8 -5.391550230322428 -2.880633171480923 15.018671719462146
273 46 8 -4.692385653503825 -3.7742019384772107 14.915179055358523
274 46 8 -5.358742664212756 -3.972793861812618 13.573457650895566
275 46 8 -5.687496237769978 -3.979732318083694 12.2803264772304
276 46 8 -3.6723161830866355 -3.9617359940642927 12.189922825660137
1047 71 5 -4.279358973079895 -1.8230042390210628 11.135441671699109
1012 71 4 -3.754894182462652 -2.5229787775002603 7.512573061722175
1026 71 4 -8.38604999743532 -6.638241168155982 10.754707252116665
280 50 8 -6.846240001046509 -0.6033129144952799 8.104980340423882
281 50 8 -6.008514953742381 -1.5728910647790673 7.63517329275854
1075 71 4 -5.47385663052824 3.5829048143221036 9.656730700685058
1078 71 7 -3.4820841867363423 -4.561629865796939 7.255635804011975
284 63 7 -5.754058448168339 -5.535219349850263 6.6285655652651245
285 63 7 -5.035075116319705 -4.777518108199058 6.13751018350877
1100 71 7 -5.877131419905454 -3.290399513735439 3.598480861537725
1099 71 7 -6.972530018407217 -1.3125984390458503 5.2113906829920325
288 67 7 -6.757399894782573 -3.0109994351843468 6.338062802867145
289 67 7 -7.47649683145862 -4.071466107408836 5.785850096332051
290 67 7 -8.625592321160997 -4.586908841187125 4.874346025912336
291 67 7 -10.207655871428708 -4.795733186591764 5.1772321176443725
292 67 7 -11.311587355947244 -3.7315469272736497 4.25958934036677
293 67 7 -12.400410779798918 -2.7237487475583904 4.26218187063751
294 67 7 -13.744437748703232 -3.311516118651219 4.240868495598024
295 6 8 1.6521567193036284 13.750922903957482 5.018388258710407
296 6 8 1.772039505502211 13.934100047049842 6.416642692115698
297 6 8 0.6832338894352181 14.389171762773973 6.260481328649942
298 6 8 -0.38250879342103056 15.39378342040876 7.366495651151716
299 6 8 -0.8606934659851065 14.889697482214846 8.328070783721786
300 6 8 -0.3302469621288728 13.070955210633084 8.28724250323556
301 6 8 -1.2182135582140643 13.482636210702912 8.883781978260814
302 6 8 -1.4287308650802732 14.30082972260266 9.924438403891568
303 6 8 -0.8793089833503895 13.148903966666303 9.9005465258022
304 6 8 0.7523951233979964 12.910108401917265 9.80572316558542
305 6 8 1.033541911590377 13.280021311663969 8.64200391753867
306 6 8 0.35376333335839133 12.376922707890566 8.9792292426663
307 6 8 1.7878184138858895 12.015802122851998 9.445710543504388
308 6 8 3.1623331767586094 11.34189623013345 8.550600004361119
309 6 8 3.8919764781009083 11.67710229568374 9.873615906862268
310 6 8 4.3461192142216225 11.132684950550818 11.31164484085346
311 6 8 2.9815551213802647 11.88265459697984 10.609631538856318
1011 71 5 6.398866249203641 7.582630102780657 5.000516393521458
313 45 8 4.206865326804593 7.784871285926216 8.413161401948647
314 45 8 3.183573771689531 7.003402729432969 9.058969845691072
315 45 8 4.433775789506486 6.1095432966405205 9.639261792801177
316 45 8 4.512072952728098 5.695067084484551 8.543308793111274
317 45 8 3.1012482422215273 4.4983480146737165 8.369457641247775
318 45 8 2.4142533057318034 3.1821029621232593 8.41435592894036
319 45 8 3.5734678166516844 3.3474902545052014 8.251377429622178
320 45 8 4.13126058018923 1.4160545576605068 7.0612824815672335
321 45 8 3.472809920909059 0.290377106480673 7.27054785801244
322 45 8 3.3314237703405496 1.33261420713919 6.303962120547687
323 45 8 1.7267420367445412 2.6609887529113347 6.694323306997498
324 45 8 1.6261282865024838 4.210894279487617 7.290796583587688
325 45 8 0.28477633834952704 4.560042354249255 8.432200451232799
326 45 8 -1.5807441866425946 4.9402189953924776 9.433015131082447
1064 71 5 0.3406511234091573 4.923148590402841 4.812186935786311
1088 71 4 -1.752209427348909 1.4719582332407737 6.391170779495752
329 49 8 -1.5958427639057158 2.4120276643159273 7.4875826073776945
330 49 8 -1.07476898877779 1.5867102599631708 8.079163027270118
331 49 7 -1.2596916329932664 1.3375209856387609 9.561240028100107
332 49 7 0.38009228247015575 1.6946014517467622 9.566198440468336
333 49 7 0.4155313578307211 3.4850308127446605 9.765320195162166
334 49 7 0.7306836427447253 3.882228399840463 10.997318208528553
335 49 7 1.0455888604885548 2.985823100651906 12.290775330906518
336 49 7 1.2342710622243511 4.7400723655570545 12.05337576539811
337 49 7 0.647182071924203 3.7022165548468333 13.178933035657868
338 49 7 0.9382938454627616 4.8396876580812895 14.776931623427073
339 49 7 -0.39942478825690014 5.183204457820412 15.91538231188732
340 49 7 0.25701517101155585 6.209307942494125 16.33182139946599
341 49 7 -1.2688128130953171 5.763875701571488 17.65635456286287
342 49 7 0.1959007617999056 5.870774251125296 18.996885650626538
343 49 7 1.7927037759409838 7.0114565813324985 19.337305562155017
344 7 8 9.06028884392694 18.90580234030416 -8.302605497763304
345 7 8 9.124743536479132 17.67963427485023 -8.57458083638051
346 7 8 8.594593169613058 16.86076576427679 -9.693776469040433
347 7 8 7.401484096826431 16.58020259147441 -8.358860162084998
348 7 8 7.5798487026976105 17.403247370394155 -7.0928562891955815
349 7 8 8.25157103396261 15.644765916611414 -7.455352280243747
350 7 8 7.543324813058143 15.010674618014251 -8.65000060416026
351 7 8 6.714142311163775 14.48279046601023 -9.017128682812093
352 7 8 7.522466325893489 14.935784016834278 -9.94456298637416
353 7 8 8.024116945918825 13.2815114599117 -10.470821154668172
354 7 8 7.626173318235346 13.333354775601217 -11.827227241912334
355 7 8 7.468630690829642 13.316468811299995 -12.868097701714722
356 7 8 7.466567967879289 12.375238901242435 -13.530934408934558
357 7 8 6.80837688161291 11.33051312533494 -12.465468150907862
358 7 8 7.964613597280094 10.10751530505053 -13.65305007090335
359 7 8 7.335046333750823 10.00087317425502 -12.547927531679374
1057 71 8 9.41781997428375 7.882675378544873 -12.338941481811872
1048 71 5 8.520545298212996 8.669304894945853 -11.528268355874076
1066 71 4 10.79437017279618 6.945416353596347 -11.525744610144399
1051 71 5 13.457036913614756 8.02317945939488 -12.442361428630184
1077 71 5 7.469767990494403 3.6126952663080054 -11.581749165100783
1063 71 4 9.857317025430136 0.9049521762162444 -9.995180482508282
366 34 8 9.119530757636662 1.0454662655915004 -11.64760804338002
367 34 8 9.41325422386686 2.4063137135766244 -12.706159720463466
368 34 8 8.424696400362935 1.3254242247221488 -13.306675332400756
369 34 8 7.907614565999564 2.9265091575959183 -13.393684172530632
370 34 8 6.097759916101965 2.654175698496319 -13.550149063630318
1038 71 5 12.210197323403362 9.485421558490048 -14.206451096285956
1035 71 5 15.020476692970176 8.204049430789828 -20.140214780276946
1083 71 10 13.351130650954696 5.779302346038648 -19.656203424766602
374 42 8 12.526120856918563 5.765585017241159 -18.57842748990769
375 42 8 11.939274133141419 5.3266510852574225 -17.765534070500074
376 42 8 10.908968036502056 4.718238102849835 -16.95479070535961
377 42 8 12.83968896366802 4.322602746319416 -18.068094519137215
378 42 8 12.47950786632681 3.008173238801236 -18.891385523412282
379 42 8 13.417564002108852 1.9219859451207957 -18.084805662143054
380 42 7 11.757123380582112 2.301989557360831 -18.136961683050092
381 42 7 11.540588136643043 2.553605766192692 -19.791583715606354
382 42 7 11.607867116169322 1.0724680835292997 -20.505789988911804
383 42 7 11.331609631387995 0.09017395940730705 -20.31275625696662
384 42 7 12.421417228876486 -0.08422389246700422 -20.11572700548496
385 42 7 12.707547174484937 -0.5484740933149469 -20.848619260992017
386 42 7 14.366883293983408 -0.44696034315540367 -21.628819862622574
387 42 7 15.189421866957074 -1.3291014463420152 -21.560405335993707
388 42 7 15.867415358484738 -0.6145435494103673 -22.553355268143854
389 42 7 16.497420490143384 -1.6139142055045848 -23.206755138339453
390 42 7 17.120420758157067 -1.1932371419323098 -21.937466991720388
391 42 7 18.70436841122955 -1.1887517396558218 -22.022844710236704
392 42 7 19.043322497754545 -1.6415394912197194 -23.17583788407624
393 8 8 -5.1303004208622704 -4.10266568927355 -15.818808394080603
394 8 8 -5.7905537217913565 -2.3534185909422107 -15.863216824646075
395 8 8 -6.286326007375852 -3.097559410263764 -14.707092866508619
396 8 8 -5.914196054212449 -3.9085477279161918 -13.798743916576587
397 8 8 -7.251642502219046 -3.9571924801204443 -13.442342796583132
398 8 8 -8.272317995066715 -3.527556934371539 -13.401490395607302
399 8 8 -8.998368648772422 -3.2647323288960646 -14.844385957969056
400 8 8 -8.348280957558318 -2.370062363226906 -14.996812839976144
401 8 8 -7.410667136986875 -1.928830286033253 -14.074875516579967
402 8 8 -6.305247815892997 -1.6713999676942044 -13.18742464741206
403 8 8 -4.744704725434782 -1.7657782544713299 -13.607718114441083
404 8 8 -5.668778512204981 -1.0563134404712051 -12.747578900701152
405 8 8 -4.908889146315975 -0.4269070103422333 -11.724909447526407
406 8 8 -6.122673658760154 -2.2257298230674416 -11.34592481327305
407 8 8 -7.617858847150683 -1.962693937981686 -10.526810163422883
408 8 8 -9.461276565671055 -2.723045697627463 -9.955032397001847
1010 71 4 -2.1010276148783142 1.2683019344427824 -11.261829026381958
1022 71 4 -8.749829692421539 2.727478768798439 -7.825955520189474
1016 71 4 -6.235012864542104 4.386599531520633 -7.383734460759843
1029 71 4 -1.5118249452769605 -0.937979429743614 -6.141595219275486
413 52 8 -4.575653025856123 -2.3285186460434386 -9.672112919752477
414 52 8 -4.594860528950857 -2.0398476379688297 -8.516308803189386
415 52 8 -3.4947846675581444 -1.1682993304571394 -8.084883149532484
416 52 8 -3.588663218477666 -0.25840874828386423 -7.534385049010178
1021 71 5 -8.592156198536346 3.7532626790628023 -8.791208154732205
418 32 8 -8.10149965711184 -1.9255819526877533 -9.103256893226071
419 32 8 -8.057421067055081 -0.9803577207047249 -7.064299873184343
420 32 8 -9.080800849398377 -1.0010133873728007 -4.882899797522556
421 32 8 -8.513964766723637 -2.6232560119282473 -5.5755184180075545
422 32 8 -8.891175358079206 -2.026982916469386 -6.786332917298198
423 32 8 -10.751252051300803 -2.001346926685895 -5.798807521254191
424 32 8 -10.397984442362063 -2.8786045449252313 -6.286628391787925
425 32 8 -10.222555462721889 -4.332285694250698 -5.605310060612743
426 32 8 -11.167349894640596 -5.097233386169074 -5.515734450693382
427 32 8 -10.817309065760275 -5.242616247259675 -6.657037780284566
428 32 8 -12.287140059013927 -5.399201403766993 -8.047863263511434
429 32 7 -12.858878668518438 -4.783710850327929 -7.532917812953381
430 32 7 -13.182694635286092 -5.519356989581763 -6.257768273130183
431 32 7 -12.548004903558743 -6.241847399031592 -5.7443181235150576
432 32 7 -13.4475311034943 -7.543108254486279 -4.786757415835112
433 32 7 -13.472185331884265 -8.557176103294802 -4.614354370912418
434 32 7 -13.735069049232385 -9.961420751062489 -5.157005721781399
435 32 7 -13.788432550359941 -10.335634838335054 -6.805733248259337
436 32 7 -14.85471764495447 -9.40662022535247 -8.633388648509872
437 32 7 -15.458659062707788 -8.044248073463836 -7.890170729068258
438 32 7 -16.02132931836936 -8.879417374370753 -7.361681661550847
439 32 7 -14.551368014627228 -7.802895658383111 -6.37772372749634
440 32 7 -15.464447032640724 -8.885940339002987 -6.230729758749694
441 32 7 -16.421140224984278 -9.884462073911221 -4.631203394551881
442 9 8 -1.7058983399904646 18.021224714738164 0.8178261781892874
443 9 8 -2.3489584299111756 17.205643058498815 1.8611228973911842
444 9 8 -4.075543854660975 16.90475896427543 1.667194282935516
445 9 8 -4.744260054027825 16.10957873134872 0.5878806912898071
446 9 8 -3.726954774381199 15.409351488172417 -0.5953324104969387
447 9 8 -4.2540014197278335 13.920616839962966 -1.2440210112186787
448 9 8 -3.7303537678320247 14.543767101449575 -2.6139529004571394
1082 71 10 -3.9307808843101877 14.777524588002423 -4.111479905834397
1093 71 10 -2.8211792424503574 13.943408254561165 -4.433021414808683
451 9 8 -2.9330146473221084 13.295808507657103 -3.152272356856821
452 9 8 -2.0722736528479215 12.717877361196173 -1.9783334547621942
453 9 8 -2.7635073285220857 11.23056273512506 -1.4979097457887505