# Generated from readdy-to-lammps

1005 atoms
681 bonds

10 atom types
1 bond types

-30.0 30.0 xlo xhi
-30.0 30.0 ylo yhi
-30.0 30.0 zlo zhi

Masses

1 1.0
2 1.0
3 1.0
4 1.0
5 1.0
6 1.0
7 1.0
8 1.0
9 1.0
10 1.0

Atoms

1 1 8 -14.562076495232557 -8.370293566131584 -12.293474885386292
2 1 8 -15.137158378031929 -8.508227927221041 -13.538159441728679
3 1 8 -13.913745556216861 -8.162643674014934 -13.679425992766483
4 1 8 -12.405001874321075 -8.185885423480082 -14.410678178201348
5 1 8 -11.587997594446042 -9.551229756226219 -14.692900724714763
6 1 8 -11.222826398951932 -8.35745354508588 -13.98143985308846
7 1 8 -11.303581502072994 -6.777494072125674 -14.650705817731705
8 1 8 -11.372363381667936 -6.786601543126716 -13.658406080181797
9 1 8 -11.54011366682128 -5.524411719565929 -12.800585740763722
10 1 8 -11.79576592781002 -3.632671329309056 -12.197647712797188
11 1 8 -10.866189301737826 -4.556709244038523 -11.046597945590694
12 1 8 -10.479610021156432 -3.3682197104831073 -10.699652807379472
13 1 8 -9.361129840899638 -4.5479952521187075 -11.414081174071347
14 1 8 -8.60159805178782 -4.350020356390304 -12.537793832047807
15 1 8 -8.036914821962366 -4.707613047497318 -11.323713481448438
16 1 8 -6.535696329506705 -4.951985888523446 -10.980484642425733
17 1 8 -5.86279997313303 -6.5146227339598415 -11.219069924883737
18 1 8 -7.151733503139402 -6.850694236323231 -9.981784361419269
19 1 8 -7.77086335140122 -7.729689225043197 -10.65483912075454
20 1 8 -8.691732769247807 -6.797929312678137 -9.850541971300837
21 1 8 -9.013860808313 -7.822304798473792 -8.558015833946218
22 1 8 -8.393419113830218 -9.086919527781195 -7.979132123407412
23 1 8 -7.80770305249553 -9.527415794350862 -9.05789770511052
24 1 8 -7.308143956953825 -10.848065499145873 -9.25390989653148
25 1 8 -6.43720379482364 -9.632837068141132 -7.951969342628435
26 1 8 -5.476111440540426 -7.831297013186406 -7.891084924017319
27 1 8 -5.192346705126619 -6.573781368203415 -7.037769107841084
28 1 8 -4.088044179731892 -6.708568137336662 -8.04539463161201
29 1 8 -2.922903376954019 -6.996959685789734 -8.948194516696555
30 1 8 -3.292279127630663 -7.080960198965078 -10.195176446022694
31 1 8 -4.413910046811446 -6.483550490748328 -10.979549030136432
32 1 8 -3.6902419924872096 -5.146557634408624 -11.01108804770736
33 1 8 -3.1981769988018516 -6.075744561222429 -9.522676150133437
34 1 8 -1.2277196153693157 -7.517378747667792 -9.516601795659826
35 1 8 -0.3374459423588421 -8.121357406184156 -9.992907321835622
36 1 8 -0.044683197755252944 -7.08092523875536 -10.473111391485991
37 1 7 0.3774143998277028 -7.772412438127387 -11.669153990541721
38 1 7 -0.7164083601654201 -7.496049002487534 -11.048844069051393
39 1 7 -1.5179253874689516 -6.812010057045225 -11.022189470595078
40 1 7 -2.4499181774949688 -7.654223656890264 -10.4010452232021
41 1 7 -2.2782532394209176 -8.251263725458815 -11.836916667232416
42 1 7 -4.1498844769449965 -8.254945397472483 -12.546432606229203
43 1 7 -4.787512045503184 -7.73464455642812 -13.508658974937163
44 1 7 -4.451379656672525 -6.387230557049435 -14.861223972354487
45 1 7 -3.4266695912485012 -5.136307744149606 -14.92597528974903
46 1 7 -2.725634927818856 -4.121259732497815 -13.857612383833063
47 1 7 -1.5094653503153992 -4.61321792655582 -14.099423297129821
48 1 7 -1.5915674267486049 -2.721645333879176 -14.046904428198463
49 1 7 -2.1120534391744674 -0.6717804691022756 -13.17795550800122
50 2 8 -1.2490545219352003 -2.1346320855317122 -3.0012237333598244
51 2 8 0.039919007105313556 -1.938557144291847 -3.358152417493226
52 2 8 0.5690579681430098 -2.827812054925286 -1.6261367138570506
53 2 8 1.1441808514873737 -2.372950920065082 -0.5159985546685282
1042 60 8 0.7304323927060428 -4.005547048408294 -1.1261796590691449
55 54 8 2.142158395427897 -5.73141695478579 -0.04888684007700542
56 54 8 2.136060803233536 -6.861913195896757 0.11076712204257712
57 54 8 2.2778718945632983 -6.44912958122324 1.458986167418809
58 54 8 1.14769648914298 -5.395649407113073 2.6095702387714734
59 54 8 0.377624563356994 -6.065595641579057 3.7986248851612276
60 54 8 -0.841233704351419 -5.47129024150551 3.6557977169790163
61 54 8 -0.9288205441610121 -4.435178026045652 4.006943027399342
62 54 8 -0.07428600571208553 -3.5020218905298224 4.057270009601885
1007 60 4 -1.8842762871383687 -4.052319772641778 5.862157542192053
64 27 8 0.12659650321225027 -5.247952813440271 0.47931876272697727
65 27 8 -0.8533898496270432 -4.697995410992202 1.219164786178663
66 27 8 -1.9295687020272747 -5.118206126795766 2.0602643618688843
67 27 8 -2.306233060623247 -3.931774804535083 3.127171273319335
68 27 8 -2.144379164774317 -2.691824516854064 2.9877049672494294
69 27 8 -1.2558284032169376 -3.040447106102408 4.529156848914541
70 27 8 -1.0273605197413722 -2.3392514005940637 5.393263889207163
1036 60 8 0.04186917101872158 -1.9788860178202814 4.668842245268784
72 39 8 -1.0495472570773063 -0.9825502191071854 5.06417998556847
1009 60 8 -2.3389792752566305 -1.641558318210256 4.037190830843293
74 56 8 -1.7242682791440342 -1.0497258149251856 2.299766489669752
75 56 8 -2.8230334514812068 -1.0545243186083204 2.4510677986255844
76 56 8 -4.558126631646463 0.45072095213818475 2.097343475488759
77 56 8 -5.045983516246681 0.3393112575587961 3.078695765818477
78 56 8 -4.929260718901347 -0.7166478346374044 3.8441437404246934
1037 60 8 -4.503043691608003 0.9611703687397756 4.038837264959049
1017 60 8 -4.287947481918132 2.014344877249038 3.5101076686676715
81 59 8 -3.9220755043918505 2.107335244131068 2.560374119753457
82 59 8 -3.8630110756246476 3.30075906623089 2.149190330222694
83 59 8 -2.5661660084068396 2.6213900589994936 2.983528210062125
84 59 8 -2.3742984519552137 1.0770185602963223 2.5801630556547575
85 59 8 -0.7910455991692582 0.6788290811103723 2.927161015573311
86 59 7 0.3619395389106023 0.7457865091384438 3.417706752321195
87 59 7 1.1237646117433802 0.0032355309356815825 4.199375492848715
88 59 7 1.1001646689572961 -0.17540111014448292 2.4944594725452895
89 59 7 0.5355208369679568 -1.033745776383445 1.6257402737159543
90 59 7 0.5943171335749028 -2.010886608184982 0.4737484348437668
91 59 7 0.7791606880751379 -0.7426326233361555 -0.3045332200774621
92 59 7 0.6794808064020055 -0.22375228118729074 1.0794896398146916
93 59 7 -0.15233881344261235 1.0127831702114736 0.8393265285440689
94 59 7 -1.3059337121733312 1.2655681552013776 0.33234632566609473
95 59 7 -1.5895127086077045 0.10882674601360547 -1.120543809307827
96 59 7 -2.0167791672081545 -1.0163672786925044 -0.4534228290987067
97 59 7 -1.3950479669983629 -2.4871285264457224 -0.6591119234656371
98 59 7 -0.02737141321520279 -1.9600467096744583 -1.9414350815187587
99 3 8 0.903868760365765 -9.116565528854503 -0.1868219321758367
100 3 8 0.4713882181685974 -8.518691411185548 0.7235791959703096
101 3 8 -1.3778931792199487 -8.190308234598941 0.5369317403743283
102 3 8 -1.7635168242252286 -7.619740577604054 1.547897838958732
103 3 8 -1.4498513632700487 -6.018341999508492 1.6191262517213367
104 3 8 -1.301952948457577 -6.676627333536471 0.3376652129740195
105 3 8 -2.5709309263699316 -7.505230043527588 0.23066408786099338
106 3 8 -2.1771950136321507 -8.239668817708319 -1.1856183000207197
107 3 8 -2.9685328848538317 -7.689579418068765 -1.264422038809828
108 3 8 -4.227343007927995 -7.929372723937562 -2.1401890486712114
109 3 8 -4.0606574174471675 -9.006776733459942 -0.37938272447215704
110 3 8 -4.796795204413592 -7.9414848201836845 -1.182720726611245
111 3 8 -5.279468222754289 -8.707137435444428 -0.24562018924839482
112 3 8 -5.80457870631963 -9.3781480332607 0.7148043567744335
113 3 8 -7.016241889711643 -8.975974743283835 0.3489999331972237
1024 60 5 -4.557047828256064 -12.078945777941495 0.2635169778242537
115 43 8 -5.506579235042714 -12.134409390817732 1.755778474885845
116 43 8 -5.860120839045325 -10.282391310139184 1.9347243650782024
117 43 8 -4.309954386739502 -9.536257118960798 2.202901298518756
118 43 8 -4.3022182597558025 -9.023714530177035 0.7634139036256391
119 43 8 -5.64095413749491 -8.089820025060947 1.8256701956140293
120 43 8 -5.222264432906551 -8.530417342660773 3.2675443652829173
121 43 8 -5.2661946110705395 -7.678798695141305 3.9764762636913504
122 43 8 -4.160921027132393 -6.831849823309003 3.784825569455922
123 43 8 -4.170191126055702 -8.101046587721282 4.758740517407957
124 43 8 -3.3497035568458795 -8.5609372055822 5.375979047652379
125 43 8 -3.4459417010315065 -7.724055024733079 4.141066702576821
126 43 8 -2.006738328431233 -8.883467376582757 4.31049170646192
127 43 8 -1.8907510230127327 -10.098153271188389 3.854158040696635
128 43 8 -3.4752635676488737 -11.126460481230849 3.0377747872879777
129 43 8 -3.319643031181263 -11.829822163296658 3.9895400008602033
130 43 8 -4.330313801018831 -12.74638074732093 2.954940825016544
131 43 8 -6.301577078101829 -12.255706870538338 2.690723576624756
132 43 8 -7.685537355083982 -12.419082186970867 3.7130754065757756
133 43 8 -7.891042220547703 -14.204755090812595 3.344918807610293
134 43 8 -7.930314127791522 -13.14253468216845 2.333895059222524
1025 60 5 -2.960018997192056 -14.144849956255399 -2.1812334498155077
136 40 7 -7.372828166282435 -15.553380134205172 0.4373805148257424
137 40 7 -5.660532779485568 -15.62701647730248 0.6443024709892847
138 40 7 -6.35756576129401 -16.852814461854397 1.496259375275213
139 40 7 -5.270564868666405 -17.757688132658554 -0.09849997458926593
140 40 7 -3.9860757225339594 -16.37506364952744 0.5785529035061118
141 40 7 -3.425798538201639 -15.269172086232288 -0.06318130497523397
142 40 7 -2.167713079628423 -14.9408954185269 -0.26988555362104516
143 40 7 -2.1269942663967116 -15.147395310042642 1.4066200536881712
144 40 7 -2.559054754800829 -15.69837327209296 3.1511210336309965
145 40 7 -2.6693356978913214 -14.225390490819736 3.9327676242481373
146 40 7 -4.493311061599404 -14.142039919944763 3.741252072981914
147 40 7 -4.75008579331009 -12.638598837264258 4.028044261380582
148 4 8 -0.22209303542589573 11.57504854840996 16.93773336940975
149 4 8 -0.038880224379799266 11.138750281244361 18.044728720396503
150 4 8 -0.6850977699411709 11.413085259578272 19.136828765009017
151 4 8 -0.7997886743401278 10.029253584795697 18.51627245104437
152 4 8 0.2653430076911554 9.906164928124939 17.51796964823823
153 4 8 -0.36178051000477085 10.50246490623992 16.55586552681403
154 4 8 -1.7899603707767149 9.834651059039443 17.7581683253819
155 4 8 -2.739281137909507 9.91820326990674 19.25087945906468
156 4 8 -3.650019940949844 8.019576987450494 18.47970557363367
157 4 8 -3.014326754440772 8.122771608366406 17.548576162267914
158 4 8 -1.6575599398858472 8.49025276906784 18.06845304930559
159 4 8 -1.3617413423207527 6.720730167035624 17.32052755873819
160 4 8 -1.3789551443291967 6.040754816260983 19.730097837868428
161 4 8 -1.588366888132026 5.5888731429242515 20.775154284194823
162 4 8 -2.8247878410022498 5.621186365351993 20.464525247462458
163 4 8 -4.059571734891862 4.82200048171035 22.164440361535696
164 4 8 -5.262240973052255 5.188639250947431 21.02249566277354
165 4 8 -4.572056445766863 6.01919666536501 20.31337697859543
1031 60 10 -4.890413735163151 7.668017712982411 21.81624440119949
167 4 8 -4.61885316180082 8.033625317755476 22.927462035654763
1043 60 10 -4.132150045504696 7.502452824574949 24.009060903864672
169 4 8 -4.668280486812985 6.09064118748248 23.375901634444293
170 4 8 -5.623766354294468 5.628573980760681 23.93644731829356
171 4 8 -5.236155230343175 4.318706161259874 23.906464671021592
172 4 8 -4.112893464572457 3.5182627822551913 24.162943487926405
173 4 8 -3.4597074616181875 1.7565469185891205 25.090035858616208
174 4 8 -3.7993660643007794 1.3707505231623711 24.073520585668273
175 4 8 -2.7251354435064417 1.1262996134383192 23.991264252901253
176 4 8 -1.9489361897646629 -0.12562705366470914 24.647513928947912
177 4 8 -2.1766409632696204 -0.31915157224787716 26.06056346120169
178 4 8 -3.0141532940268374 0.6473558700168203 27.355547288623068
179 4 8 -3.9893131781020132 -0.0001387116921357245 28.0316267633423
180 4 8 -4.398362091965872 -1.3392532209854167 27.40315211654087
181 4 8 -3.8377760696495966 -1.128250847164094 28.90893985091136
182 4 8 -2.800451064789387 -0.12315169976665793 28.875884076944644
183 4 8 -1.3895705663043842 0.23153900379989867 28.37629717984899
184 4 7 0.20607875301274697 0.14786221181460782 28.82202201468429
1028 60 9 0.48454867215197656 -0.1636428146964004 27.098833515187092
1023 60 9 1.950030952212439 -0.42459969139884574 27.861457368448953
187 4 7 1.52165423291006 -1.165548282690913 27.29457489670004
188 4 7 0.390966708212501 -1.1127326137843074 25.951697668597156
189 4 7 -1.458142686421951 -1.8040516746037008 25.341882093995604
190 4 7 -1.9934091475020812 -2.206320444501372 24.61815670452622
191 4 7 -3.441382033962543 -3.124973852036736 23.73781096659444
192 4 7 -2.661866587839212 -4.0081907844809335 23.393974945736122
193 4 7 -1.2627037517539859 -4.815339047231025 23.251632266281813
194 4 7 -1.8696877047582978 -6.356040669445021 23.740325512401267
195 4 7 -1.5457886498027604 -7.4889993605254865 22.61991802443914
196 4 7 -2.0675782511568968 -7.333621298578613 21.29280868313208
197 5 8 0.9406436497380928 -1.8670462465769837 14.235069099307587
198 5 8 0.8330855571343878 -3.503820075822133 13.504543530400909
199 5 8 0.933642557507538 -4.661283263404154 12.569625207288672
200 5 8 0.4299863857334116 -4.729023690597978 13.934995813754112
201 5 8 1.4145965271268748 -3.8387147700375848 14.522631278993252
202 5 8 1.1942335516558082 -2.6731094161615743 15.172815727001817
203 5 8 2.043457057277476 -2.009182980223717 15.798868206807976
204 5 8 2.4759626731330093 -2.7864172749924614 16.92263724987293
205 5 8 3.4241602182255817 -1.9245619711687427 17.068928219618396
206 5 8 5.1161069730507 -2.255183103716254 17.27310186107321
207 5 8 5.534652927298205 -2.721265402081021 18.198680933695844
208 5 8 5.040422888314407 -3.3670130746555835 17.21885656766152
209 5 8 6.1537138882123035 -2.5203749204904162 15.87027675188135
210 5 8 4.826908380861284 -2.5983343169644284 15.387201343320093
211 5 8 5.694766486575531 -1.766389590975581 14.835742958379656
212 5 8 4.6604023117832405 -1.637248876534089 13.654240352799437
213 5 8 5.148856439460129 -1.4680967901377995 12.259897543553802
214 5 8 6.4641267788629575 -0.4592100603053205 12.737634287059453
215 5 8 7.221670655004251 0.7648508143209963 13.035418164375534
1019 60 8 7.05400675328815 1.4738186640266806 10.836638324582848
217 30 8 6.087340159630431 0.8055691990178006 10.447763708193202
218 30 8 5.9328290189839725 2.213591843406758 9.128215382726355
219 30 8 6.9098744650654425 1.4437766010097943 8.863001255926104
220 30 8 8.050591535024735 0.9650909876704133 8.077322986751755
221 30 8 8.234371209408526 -0.9243480846017039 8.762352632520132
222 30 8 7.098589267021945 -1.3896490682097637 8.382554798746046
223 30 8 5.892974112128021 -0.763978416928186 8.312304007086041
224 30 8 6.557992031234492 -0.12901212486471222 7.347502038121489
225 30 8 7.243391106140669 1.477565978529672 6.534952842490616
226 30 8 6.942402208251396 0.4534836507378472 5.792561430925014
227 30 8 6.150915606104643 0.7370646741372546 4.700670362613734
228 30 8 6.4816509191498675 2.224180591519606 5.097917546936925
229 30 8 7.466173637814348 1.488025516948511 5.3317727527866365
230 30 8 8.443597128835263 0.6550130948766048 5.282898471560629
231 30 8 8.817051933823505 -0.48229809071425483 6.1740345668166166
232 30 8 8.50632751913597 -0.6790177326945963 4.046053392053831
233 30 7 9.212075986441924 -1.6620444538656058 3.585168179973675
234 30 7 10.421187135472868 -2.0173645376443825 1.953102322071015
235 30 7 9.845538577645197 -4.225476272014313 1.6587247483751768
236 30 7 8.717976433709978 -3.546144834404616 0.17345998259805173
237 30 7 8.395537661924946 -5.1011441940125675 0.1247608214775207
238 30 7 6.686654102668573 -5.654216675724886 0.4710935949435038
239 30 7 6.562104336319832 -3.9525469108641142 1.2268689683142242
240 30 7 5.332463792164777 -3.755545099963097 1.5970126949899734
241 30 7 6.077778310118461 -2.7086816120252384 3.140776677528113
242 30 7 5.502730058924247 -2.1231481462953936 4.328666007259611
243 30 7 7.008781248231083 -1.5770255580272985 2.944059757678311
244 30 7 7.2441071845682385 -0.35501723349413916 3.8374151286269367
245 30 7 7.112031364454688 -0.7087069795240046 5.06147335553091
246 6 8 -0.4721102713118221 1.9316433896131993 4.151948063010832
247 6 8 -0.4424196129087447 0.9389061813207129 4.906673443218971
248 6 8 -1.3494353574738067 1.8844737631259627 3.6328128007705787
249 6 8 -3.3943428695226787 2.5184040279187707 4.928842106205698
250 6 8 -3.115664592438322 4.5716118053378825 4.4329615987245825
251 6 8 -2.216760389685907 3.0724316269781404 3.8941319980463334
252 6 8 -0.8171616936333819 3.6634812434838877 3.50328776691713
253 6 8 0.06501939323088564 3.7083349652303124 4.521539600556937
254 6 8 -0.602747200216422 3.7017711018642707 5.6905527535909455
255 6 8 -2.016510483769904 3.681604678522439 5.774701628975317
256 6 8 -2.362322685105721 2.986132123328815 6.8402139431938425
257 6 8 -3.5994952332766386 3.8233946483480445 6.570718069356869
258 6 8 -3.0701638224497576 5.1233624513286244 7.336823000357051
259 6 8 -3.4297887899154973 6.934918655566927 7.832178074191829
260 6 8 -5.058901021506933 6.679042929023748 8.856022636149882
261 6 8 -3.2763931976913896 6.776675308525972 9.664822180874905
262 6 8 -2.490015903929153 5.862510659093078 8.98240241949559
263 6 8 -2.9819503303347856 4.341419266086975 10.04128276393215
264 6 8 -3.6341851239347727 3.0896781267663083 10.516768174251837
265 6 8 -2.429191312064823 2.269130189212725 10.699648309392757
266 6 8 -1.513118811659642 2.877774728876995 10.698467630901925
267 6 8 -1.5860524614059324 2.2384578845552285 9.870655762118476
268 6 8 -2.5557671958823023 0.7381704226078606 10.707666278194914
1034 60 4 -2.687242762994734 -1.1444227866583567 11.304682175827834
270 46 8 -2.5756816472672863 -0.4243140094879069 12.550384078962876
271 46 8 -2.5490471842624682 -0.840536836639025 14.264677264459104
272 46 8 -2.500653827289155 -2.532926112650654 13.696505335572043
273 46 8 -3.4326993075926495 -3.5256611702768414 13.579646933204986
274 46 8 -3.741591821709634 -4.364773430920492 12.211156094146968
275 46 8 -3.7610691100832114 -3.679852850428478 10.40583586435501
276 46 8 -4.888896432144638 -3.9997560691331597 10.468631713766614
1033 60 8 -4.806511205423569 -3.450257151525204 9.370405975038324
1012 60 8 -3.674113691078394 -1.5418381011226838 7.873164932140964
1026 60 8 -5.302013606301978 -1.88397374135489 8.933695796765438
280 50 8 -6.403305928946357 -1.9674330179580093 7.203374628318135
281 50 8 -5.259571797660205 -3.445006338977367 7.1172751098010405
282 50 7 -4.44938854536175 -2.61744922993621 7.235484227035045
283 50 7 -3.279022682871844 -4.141684239099509 7.2474352531117345
284 50 7 -4.085438417844505 -4.305958918997725 6.164991921323835
285 50 7 -6.015627343149287 -4.405900119531215 6.731428547888461
286 50 7 -7.143122409618661 -4.02873361343229 7.1634643540568055
287 50 7 -6.510797865544627 -5.50330438461352 7.0330651163664415
288 50 7 -7.349043958617302 -4.7837639203655895 5.293390457780632
289 50 7 -7.9590775780044165 -7.017327880314854 5.349527587262793
290 50 7 -8.806590478102152 -7.199598640035268 4.348667203776297
291 50 7 -9.842747601535127 -6.067549814405344 5.05943400235391
292 50 7 -9.770976761196366 -4.982413238367955 5.893640442365002
293 50 7 -10.095026114603789 -3.3974578769224784 5.416075787404079
294 50 7 -10.075301274469494 -2.6126779948054826 4.044200045421166
295 7 8 2.1802270039290828 15.099241916229914 7.818312105049336
296 7 8 3.0283666674464556 13.58178937439293 8.185065446714795
297 7 8 2.5273699138822345 13.634487441662252 9.244427078328327
298 7 8 2.5918804148985957 12.143259304552418 8.961096986414107
299 7 8 0.8269862898187688 13.083386414273871 8.683579065123718
300 7 8 1.5218698036677716 13.01541737064939 7.49686001885609
301 7 8 1.5642549935265302 14.251260179507144 9.078769853796468
302 7 8 2.959588808613772 14.607331370170483 9.722180924136566
303 7 8 1.6758771433024737 13.890311379264713 10.600909495753621
304 7 8 1.2535150357991705 12.760815255910295 10.775823985256409
305 7 8 0.23561158537447197 12.408404340313949 10.825282143662628
306 7 8 1.234481682898872 11.035904870612605 11.17673171221961
307 7 8 2.4131187211627805 10.820359622214667 10.810420763503643
308 7 8 2.812587047740797 9.665708993891355 11.128023445905697
309 7 8 3.8169164527130595 10.490738756197826 11.104334972244306
310 7 8 5.151137061056102 11.668274122126528 11.508652232244724
311 7 8 3.7508434691675054 10.849912611737793 10.095928332743762
1011 60 5 5.083603075659521 9.697338037713825 8.654603617746696
313 44 8 2.418997123080591 9.848994087098866 6.884561216745289
314 44 8 2.373297088068987 9.135797840037727 8.773324322403164
315 44 8 3.2727968371865273 7.696174417145891 10.230067925982295
316 44 8 2.870982139441893 6.276671894524798 9.635344855628972
317 44 8 2.2910817192253523 5.038154824404236 9.896968782762624
318 44 8 2.1210818456699965 4.8319553723876005 8.519122451552722
319 44 8 1.7917327146663846 3.6568916196455006 8.347225760872297
320 44 8 2.1730096423261807 2.9140442605842374 6.533985368263271
321 44 8 2.4800393819413125 1.894227746531095 5.9025093263748785
322 44 8 1.465124154811138 0.9993970161983915 5.856243673824179
323 44 8 1.031871108002248 2.4479034575035734 6.269799760687238
324 44 8 0.3023718925605797 3.7247844818733205 6.75887281070117
325 44 8 0.5220206250482898 4.29606266354159 7.537772075306352
326 44 8 1.2414911534227553 5.001528176870557 7.47986114200038
327 44 8 -0.4591926045629093 5.339320777073166 8.588411253517364
328 44 8 -1.7650278718545782 4.891001068737417 8.6009358207028
329 44 8 -1.0872693535513855 3.1437892143979824 7.74703416840947
330 44 8 -1.3798979072321538 3.220726602903991 9.10717683043288
331 44 7 -0.7128288205112743 2.194892934383887 8.71358474840465
332 44 7 -0.2534355041476362 1.5148965117116362 9.339554159671794
333 44 7 -0.5585726884550897 0.8212553850327996 10.433286944356581
334 44 7 -1.022916127340606 2.180816878969787 11.849066984648271
335 44 7 -0.14397075618368624 2.4439635044375776 12.903147220977868
336 44 7 0.41064468534677967 3.4349055315446546 12.733285297460947
337 44 7 2.381797555654046 3.1124301539333237 13.299955789887871
338 44 7 1.9887722032595443 4.241940337827878 13.491963680102053
339 44 7 1.3411503122663702 6.506499785313703 13.779886784211513
340 44 7 0.15561733194088218 5.1086221631521935 14.53491415392314
341 44 7 1.3357129071719325 5.0000246692113395 15.235881486169966
342 44 7 1.5668600954031406 5.637462332594829 16.995507966340337
343 44 7 2.2010871750798993 6.21483717419195 17.985086625179566
344 8 8 5.731575696850795 19.385849866745126 -8.563393544853364
345 8 8 6.201790898120277 17.836530413380242 -8.894540972680755
346 8 8 5.408882177728419 17.117947470158782 -8.817654388239456
347 8 8 5.400885004969345 15.193871179032469 -8.538295077985396
348 8 8 6.48891219276772 15.687091335001218 -7.464083817151004
349 8 8 7.029199292318598 15.468010941566497 -8.445170233542692
350 8 8 8.11459417265108 16.195461296058152 -9.336330827639925
351 8 8 6.613820809090574 16.713961419268472 -10.914529184766064
352 8 8 5.767350611230578 15.96129679474205 -11.25813727310225
353 8 8 6.238178230783494 14.937722606915187 -10.97455112005996
354 8 8 7.431143770019966 15.381254367037641 -11.139359477915498
355 8 8 8.056356008117218 14.43584906652229 -10.893266349880953
356 8 8 7.632542455842879 12.775101354226962 -11.90929853339954
357 8 8 8.477600609690048 11.604723178266944 -11.534814683305774
358 8 8 9.594435750271717 11.1339952067967 -12.062785173152589
359 8 8 9.847812500991832 10.02464299236958 -10.680656551990282
360 8 8 10.577317775282031 9.363863295182401 -11.489017850850624
361 8 8 10.282013171194071 9.037098911495978 -13.112519822188721
362 8 8 11.289043262212093 8.946479556486583 -12.372512676346178
363 8 8 10.666866853602626 7.983721245462575 -12.210215177343448
364 8 8 11.559471094589416 6.742494126969161 -12.051106542406577
365 8 8 10.972627824909242 5.7102477202116715 -12.514084990801436
366 8 8 9.87839936825773 5.581415396422785 -12.010074154148048
367 8 8 9.264184361872465 4.488601939098079 -13.064780350969103
368 8 8 8.220647649411356 3.0864373916741736 -13.18805348322263
369 8 8 7.02610777093565 3.656427316048986 -13.000422082486475
370 8 8 7.783283829213512 3.8434665395773373 -14.905971709521763
1038 60 10 8.71185638045913 4.252572896529189 -16.692244470645655
1035 60 5 11.896534630299662 5.980281072535346 -19.06570102873945
373 41 8 12.403364542909545 5.65645237132542 -15.689945455484326
374 41 8 13.112126432306278 5.030943716807611 -16.425538200546477
375 41 8 13.748197190109936 3.8980458404496146 -16.097043409777328
376 41 8 12.526074208439333 3.603991809022203 -18.193270403751036
377 41 8 10.92896289130933 3.4061523097917252 -19.02529260396616
378 41 8 11.061400948608581 1.85051168761078 -19.2328977126354
379 41 8 12.562721431825182 2.333521863115427 -18.10720513307086
380 41 7 13.481314261534603 1.2576420526571634 -18.52040544853835
381 41 7 13.94146369620878 -0.044480432648936155 -18.421683066408754
382 41 7 13.153384436336793 0.3255743600994287 -19.485733780932947
383 41 7 14.69844412137598 -0.32345079138376803 -19.500022392150175
384 41 7 13.770965155509582 -1.622709046552166 -19.0887760402022
385 41 7 14.928367659296457 -1.34942238488575 -20.374115300557392
386 41 7 14.573745593786747 -0.0054024385540482394 -21.44035841249398
387 41 7 15.599908610160101 0.12480659269889635 -22.319029562744955
388 41 7 16.60709713107149 -0.6965301146197616 -22.427319842180665
389 41 7 17.681204199737945 -2.2162934590163927 -22.050583063646734
390 41 7 18.042552353844904 -1.495784261847609 -20.336982303517306
391 41 7 18.8445658043606 -0.8276922863349218 -21.372577549328636
392 41 7 17.368292355787528 0.07314336686962118 -21.222624155762677
393 9 8 -4.927758633907993 -3.783716378223321 -16.043605286033618
394 9 8 -5.525084571939088 -4.578486861675274 -15.119351573615699
395 9 8 -5.48742790842887 -5.287165036471839 -14.327499707367696
396 9 8 -7.1350310584653 -4.444112208659869 -13.743611587775929
397 9 8 -7.100796937085289 -3.437480047246867 -14.632114350480753
398 9 8 -6.458731327335012 -2.7198543467816454 -13.089106309029336
399 9 8 -7.783364735895914 -2.3962951330745215 -12.626617210266847
400 9 8 -7.752475664878171 -1.3890506151425046 -12.27746613073242
401 9 8 -7.532307176989149 -0.37010589559565604 -12.984486613781673
402 9 8 -6.575779879231229 -0.6523913850035339 -12.334628977303035
403 9 8 -5.129265051347386 -0.761655898583816 -13.002865775420606
404 9 8 -5.6533945213952075 -0.02335321983781422 -14.208822854203527
405 9 8 -5.520023325091456 -0.0548800472560895 -12.125258447422695
406 9 8 -6.954627858536781 -0.049413425132710874 -11.334635055596298
407 9 8 -5.415541778096215 0.6020867760288213 -9.50393073822966
408 9 8 -6.118824224004456 0.6454850794431306 -7.989555675092933
1010 60 4 -4.513259321370102 -0.6818099405053373 -9.956234776960686
1022 60 4 -7.744944779337605 0.5961661227518947 -7.836601014612078
1016 60 4 -5.907025046953313 2.0276477846766023 -7.499705383336078
1029 60 10 -5.040074612774415 -0.5775963826261566 -7.45498391567386
413 31 8 -3.9304519094067354 -1.6242480909925354 -8.011288904099615
414 31 8 -5.858717752167729 -1.889239663203831 -7.239632634010051
415 31 8 -6.088835519836555 -0.7645137384596585 -7.819409581696963
416 31 8 -6.899833538882145 0.43380424165507736 -7.134442905056471
1021 60 5 -6.98477123839767 3.4678285406614737 -6.015230319549095
418 32 8 -6.610237707691553 -0.8988586904935242 -6.037487940489296
419 32 8 -8.152621066827335 -0.7439929767852731 -5.308214622986641
420 32 8 -8.866896284275063 -1.789403806128958 -4.547752967209249
421 32 8 -10.17269408631695 -1.3487226311859168 -5.601774594181841
422 32 8 -11.324072942584344 -1.7906925010949517 -5.955605818400323
423 32 8 -11.248472446348956 -1.3494787719183516 -7.0222459966632655
424 32 8 -10.880678605901249 -2.6615369135250737 -6.790319649356491
425 32 8 -10.64726119020999 -3.4632579049482928 -8.46825418964399
426 32 8 -11.41857223982778 -4.366593315592637 -7.75598045885945
427 32 8 -10.334412343436599 -5.576640852911866 -8.496917232724575
428 32 8 -11.645483359812914 -6.072771656047355 -8.451600285171981
429 32 7 -13.034089810968835 -5.118570104037907 -8.999854287135792
430 32 7 -13.463951833336997 -3.897639328635435 -8.160686596751749
431 32 7 -13.659992529941709 -4.597802702055574 -6.843447546763378
432 32 7 -14.477122430951725 -6.307222482962351 -6.6394923804037544
433 32 7 -14.575029461388693 -7.301999554795891 -5.792861894131635
434 32 7 -13.418898775966717 -7.888208970494252 -6.079740682975485
435 32 7 -13.33996540505601 -7.067629745913617 -7.1780226247224315
436 32 7 -14.168160406716447 -6.535338112500156 -7.821948636777086
437 32 7 -15.071786436140544 -8.46286988696777 -7.702221414908636
438 32 7 -15.052981615025192 -9.940455383681838 -7.816667687266637
439 32 7 -16.253749893185024 -8.211730776437985 -7.238659482288501
440 32 7 -16.7597222881916 -8.065575302817493 -5.679382546269091
441 32 7 -15.010892286268902 -8.62828744908249 -6.173312792107386
442 10 8 -0.31924913654484866 15.106404124292613 -1.6023234686426457
443 10 8 -0.30158297463340034 16.114735827961432 -1.0673592439917194
444 10 8 -1.9133237336106428 16.291857671577926 -0.17523178350129384
445 10 8 -2.0054754932440124 15.117575462357632 0.22360387444713195
446 10 8 -1.8473015435063393 15.137019031849153 -1.0604744078758106
447 10 8 -2.0442998648190933 14.136265901189283 -0.09063877415324968
448 10 8 -2.9671712829192187 14.97947530124578 -0.6804604018743525
449 10 8 -3.8361149801315273 14.021445464114233 -1.2732326571987367
450 10 8 -2.9584098587571113 12.595672361242034 -0.49399971219748356
451 10 8 -2.9738576576120233 13.557407108697086 -1.8684861759359797
452 10 8 -2.4043814950788716 11.963736172511181 -1.3332715772458925
453 10 8 -2.422487431390026 10.996051313521333 -0.7472766617374768
454 10 8 -3.8448342017756465 10.462550997007966 -0.36001682918059175