# Generated from readdy-to-lammps

1005 atoms
603 bonds

10 atom types
1 bond types

-30.0 30.0 xlo xhi
-30.0 30.0 ylo yhi
-30.0 30.0 zlo zhi

Masses

1 1.0
2 1.0
3 1.0
4 1.0
5 1.0
6 1.0
7 1.0
8 1.0
9 1.0
10 1.0

Atoms

1 1 8 -14.712425906447333 -8.819099356873288 -9.389516676350805
2 1 8 -13.650475200836858 -8.684637092165913 -9.562493330578329
3 1 8 -13.884423618215024 -9.640066737641027 -10.366197421822907
4 1 8 -13.23714285229125 -10.021832894971539 -11.244217166605848
5 1 8 -12.077073529805734 -9.454201184180318 -12.295476022383088
6 1 8 -12.180348873496914 -7.617001985619507 -13.486874064628426
7 1 8 -11.658317350240486 -7.98428101836245 -12.59122656350496
8 1 8 -10.797471699328847 -6.658058815866094 -11.575746851834975
9 1 8 -10.263987963698025 -5.814614515143603 -12.378183646435167
10 1 8 -10.358736286655008 -3.9308257359221925 -12.93731596179617
11 1 8 -9.453823670584297 -4.928429557260803 -12.52228787511353
12 1 8 -9.564406975175133 -5.7828798707592695 -13.637212357425666
13 1 8 -8.908574619119797 -6.087870113066328 -12.218067514228437
14 1 8 -8.016156062628957 -7.270178553729847 -12.719583091052373
15 1 8 -7.704517847611225 -8.361180621452595 -11.149060629033587
16 1 8 -6.891435336932892 -7.067365188764067 -11.125200653123834
17 1 8 -7.798842433584086 -6.073991596771179 -10.39038150384878
18 1 8 -8.692105659455683 -6.506321834946756 -9.735134478189302
19 1 8 -10.296802986902925 -7.233265150271246 -8.827999400355658
20 1 8 -9.448937589171862 -6.268057344737933 -8.540678125079271
21 1 8 -8.480600533744045 -6.962904275699198 -8.150874774317273
22 1 8 -7.225424530134904 -7.859368721408161 -8.489278421692829
23 1 8 -6.172185093739352 -8.995859336183708 -8.414659286122319
24 1 8 -6.588524766861532 -10.072305427164357 -8.97448304568169
25 1 8 -5.269777594799365 -10.02418370670251 -8.948715174578915
26 1 8 -5.665477201452688 -9.590157413544324 -7.449528042229709
27 1 8 -6.26340312264328 -7.728439386013112 -6.725416913803357
28 1 8 -5.727569036842663 -7.505597011277033 -8.665931827269834
29 1 8 -6.743000762336511 -7.650564475871305 -9.394709140963
30 1 8 -6.343782504260874 -8.924020422983126 -10.486382856441814
31 1 8 -5.0596575851002346 -7.566617239784056 -10.473156112797437
32 1 8 -5.608536172964724 -8.30121654624227 -9.695735373367988
33 1 8 -4.378592485825652 -8.45813894913709 -9.704214821796178
34 1 8 -3.1915670667258955 -8.826458790650907 -9.750089149113972
35 1 8 -2.244677085469504 -7.20287255456078 -9.544569410116653
36 1 8 -2.072312005622687 -8.89826906389538 -9.253162652546404
37 1 7 -1.2858236008988906 -9.666509729771656 -10.05242075682624
38 1 7 -2.0875944179408004 -10.199924806123464 -10.892191043126711
39 1 7 -2.8182667973437074 -9.004906202023626 -11.786568127810748
40 1 7 -3.6909878375220297 -8.080407158580854 -12.382319883871784
41 1 7 -4.8910015040059385 -9.136931434857837 -13.12121889021926
42 1 7 -5.325261277183714 -7.600323285884897 -12.7666562377207
43 1 7 -5.455141889529675 -6.620431048020898 -12.04936783575704
44 1 7 -5.418047431215716 -5.683766655367803 -12.902621890956754
45 1 7 -3.82702464024482 -5.53902011441763 -13.358521272588902
46 1 7 -2.6212856491372234 -6.360178531103758 -12.658844987286479
47 1 7 -3.02296831165389 -4.369287041966367 -13.14173719125782
48 1 7 -0.9988727900930464 -4.5275766336625445 -13.345498486169218
49 1 7 -0.15684561440038658 -3.0452066432658027 -13.191568026611973
1050 76 4 -3.0751247525557126 -2.395194078547571 0.9113417843295942
51 76 5 3.1005572857527564 -4.646361132291302 -8.059951108047104
1046 76 5 1.4233023640492908 -5.22600068088799 -0.26464143347437336
53 76 5 -1.5840780761910784 -5.083853404255297 -0.30065354871366445
1042 76 5 5.96206777901933 -2.9089286594039705 -2.783798530054142
55 56 8 4.453471882209066 -5.143280533919429 -0.7067571083046198
56 56 8 3.761542218858934 -4.540510099174928 0.4616610580832889
57 56 8 2.275673007581394 -4.700508586622249 0.08562030858774126
58 56 8 2.138032527185131 -5.651124705282735 1.5699970680049955
59 56 8 3.2480903423137577 -6.443821324474582 0.5293461550700067
60 56 8 2.1986000229607523 -6.660500748215585 1.9903451495871574
61 56 8 0.6725052974843161 -7.07072979709763 2.305984533596213
62 56 8 0.11632509294609315 -5.314303188896065 2.5891482468226954
1007 76 4 -1.346652046655833 -10.782970355411786 7.479595769601054
64 27 8 -0.29440311389158114 -6.4333798031818406 0.39196634220461213
65 27 8 -0.15742296251177212 -5.42820311777019 1.1481037952662947
66 27 8 -0.7404766830248625 -5.894492625458849 1.9456173340580485
67 27 8 -1.561067874896212 -4.38606762291712 2.4489598138159514
68 27 8 -0.5081866998923484 -5.666234115120095 4.536395779574673
69 27 8 -0.9465843182846686 -5.477154715359756 5.412250344637589
70 27 8 -0.22058679294997036 -4.7257259193982675 4.886016418993556
1036 76 4 -3.742527139002544 -4.730312983658283 5.948469353022636
72 76 5 -0.7755455922588674 -0.4541507927163769 0.8612595174056655
1009 76 4 -0.21752089452699871 -3.0325274807642946 10.095895330310949
1104 76 10 -1.6963060255368778 1.497986188275054 -0.17516155317099275
75 58 8 -1.7516792118213866 0.9316549845410628 1.3382248558165626
76 58 8 -2.281029136027929 -0.4903767742860373 2.554237930971993
77 58 8 -3.22739424427327 -1.177586095015679 1.6844195993748619
1074 76 4 -4.968397447178087 0.09271856611461475 2.0201642396614785
1037 76 4 -3.8328822433651877 2.9214550768105063 7.175304376793499
1017 76 5 -5.895717321740849 2.464104600498665 6.555626561877536
81 61 8 -3.722519357717002 4.413619313608851 2.52314767368517
82 61 8 -3.7311013965624125 3.482865998434901 3.985792871570359
83 61 8 -2.5450042771067554 3.48537428689405 2.921640621080561
84 61 8 -0.5866004701753149 4.061379089631601 2.9192590456019984
85 61 8 0.35480368786674105 4.788237469476343 3.208084169504178
1079 76 5 4.531598059610506 2.450450393840418 0.3987181524022351
87 68 7 3.8561866773907814 2.127769040785412 3.0327702309310127
88 68 7 3.9867183690533197 0.7547842125101545 2.6806535916312546
89 68 7 1.9154276776347923 0.5663467139862359 2.335693529379502
90 68 7 2.2952267594438354 0.18578296698548696 1.2100684377665356
91 68 7 2.7967260670948044 -1.4121503129074857 1.742507297565241
92 68 7 2.2112585912708447 -2.8209850947866606 2.279734099747349
1044 76 4 -0.6927837839728835 -2.063293850715619 -2.8560226176282026
94 60 7 0.05024991987282862 1.626578280728861 -1.3694299432061132
95 60 7 -0.6793480839390637 0.14377653460101353 -1.8318462701989424
96 60 7 -1.7758436324609566 -0.06985914928921994 -1.2739576986306453
97 60 7 -3.242750763726587 -0.8747621652215065 -1.0546143615293233
98 60 7 -2.506164275133812 -2.256534294321666 -1.4105555849382132
99 3 8 1.6943182164597788 -9.130228870896248 1.0311900779829106
100 3 8 0.23236459812871588 -9.176412089292599 0.8115669106602221
101 3 8 -0.7269954905389076 -9.785104068787488 2.13795316295649
102 3 8 -1.044237908337011 -8.66963579124893 1.2538393672523658
103 3 8 -2.1548850736674057 -8.15398374226319 1.0243398832704853
104 3 8 -3.2353069302767916 -7.35435597259216 0.7853112922887948
105 3 8 -2.489506226774418 -7.656078696525063 -0.35129753156593857
106 3 8 -2.7976552222548157 -8.829312567073078 -0.5255523774092721
107 3 8 -4.097361744113908 -9.849612801246323 -0.1719064360522342
108 3 8 -5.313172678168538 -8.933885095365856 -0.6432749101404369
109 3 8 -5.693560499554033 -9.51857321157635 -3.0923506407218393
110 3 8 -5.790647884046054 -8.253537684573772 -2.9665915649499235
111 3 8 -6.3761491108554464 -7.675549759089225 -1.7582523715455285
112 3 8 -7.043386232529584 -8.527239325754483 -0.7357445176332493
113 3 8 -6.673113300267175 -9.756463995174599 -1.0020067849019976
1024 76 5 -3.9495222665805527 -10.293308256058237 -2.785982819005424
115 45 8 -6.865918435603324 -9.846373837934596 2.8900034930740564
116 45 8 -6.246149238430304 -8.916480970476579 3.332092383408731
117 45 8 -5.331237067688279 -8.105300787561616 2.9083537112032163
118 45 8 -5.065202418226288 -8.593827227537453 1.3596343339254995
119 45 8 -3.717814095832321 -8.675167275415957 0.6279334289073234
120 45 8 -3.1470619920754244 -7.601452190309723 1.7431846577889378
121 45 8 -2.5272291997577985 -7.3726288335225965 2.4972856444982434
122 45 8 -3.2685772792420216 -8.28666051743658 3.4218100559909557
123 45 8 -1.6722476258014003 -8.999460202614312 4.59488674231336
124 45 8 -0.742416611400024 -10.068440938987122 4.375794289514464
125 45 8 -1.2187870914578633 -9.326748501988314 3.3080418430666674
126 45 8 -3.0911911384254025 -10.790574507622786 2.9437494231110506
127 45 8 -5.469660446120659 -10.560913356321553 3.0092100361002894
128 45 8 -5.468183918388307 -11.74556833056798 2.9694534447423195
129 45 8 -6.006765671475553 -11.645659803373114 1.473889947419497
130 45 8 -5.750469376716897 -12.614895855526102 1.8287325112543784
131 45 8 -6.547287237857317 -14.469537846740895 1.9812840511396603
132 45 8 -6.515290938425111 -13.512221603509325 1.968989077143654
1097 76 8 -6.335017982768519 -14.171848388337308 3.4866363563662217
1084 76 4 -9.063539400206073 -12.782872705628092 1.8730026104064836
1025 76 5 -6.542386486223622 -12.12254574261307 -5.518391344098271
136 42 7 -6.405482835725953 -16.028383001568017 -0.6457101488507989
137 42 7 -6.291685560697255 -15.501695284956392 -1.9447998198225216
138 42 7 -4.605688036040305 -16.187734980045224 -1.6281848932941243
139 42 7 -3.3455186739094254 -16.675712450253823 -1.0562737942933638
140 42 7 -2.6786713885279214 -14.813775380468522 -1.1079637060507819
141 42 7 -1.3892284834619228 -15.25669398333841 0.4469307817041589
142 42 7 -1.4444529900918701 -15.211628324353743 1.6084445265586678
143 42 7 -2.419467288537416 -13.55790079223699 2.3164211995026136
144 42 7 -4.376330708268295 -14.727443949469778 3.095659601132283
145 42 7 -4.131653076503048 -15.227723019627366 2.2471513455205527
146 42 7 -4.458968291451454 -13.50027637667541 2.432084526682192
147 42 7 -3.6983149322864755 -13.503747461667023 3.3343847344332866
148 4 8 -1.1084874696577904 10.331700012996786 18.554741441646673
149 4 8 -0.3653747989211172 11.547196747047506 19.360342781502162
150 4 8 -0.33934292616968054 11.210574653215923 21.496888164737136
151 4 8 -0.5708003891112532 9.784470491026859 20.61773910228721
152 4 8 -1.237874892897185 11.51309128411753 20.24243993739419
153 4 8 -1.6966681562569845 9.693507728086812 20.653060620863545
154 4 8 -2.6466105831654505 8.937287359107083 20.30102492958789
155 4 8 -2.3623349317687112 9.345785151540845 18.595662424382358
156 4 8 -3.364156147927994 8.780945340936935 18.012483254834038
157 4 8 -3.325349044682846 8.429079891616057 16.984267575924537
158 4 8 -2.600098649221839 7.114984297889516 17.31218904537727
159 4 8 -3.089530469575458 7.402009829689614 19.33080057262589
160 4 8 -4.169910664578663 6.847142680935239 20.49913272867558
161 4 8 -4.615065254253992 6.201720482126211 21.51044684128614
162 4 8 -2.845200483190664 6.771257317972846 20.77762459707735
163 4 8 -3.2832543383891055 4.7482879437414205 20.83461307401833
164 4 8 -3.350841101132897 3.1241998217013456 20.813745971392112
165 4 8 -2.112383513911809 3.3393952288382347 21.08941135612628
1031 76 4 -6.1451610106015595 9.055786266412822 17.16600622939237
167 76 4 -3.854325315001987 7.478622193385698 21.83063222698114
1043 76 5 -3.2328492484192943 2.54390067649688 24.496263673833276
169 69 8 -4.272620405396162 2.000122007427886 24.03018345919819
170 69 8 -5.514852046376612 3.7014717215356647 23.60207185379585
171 69 8 -4.9085197117199435 3.0891484379862035 22.84435804305517
172 69 8 -5.871457356742857 1.6226633129970842 22.637973648341088
173 69 8 -6.02799021401391 0.7725427177803253 23.911920888051633
174 69 8 -5.043951697313572 1.2301628366847044 23.940430834163802
175 69 8 -4.364846793325363 -0.07518910420677727 24.25127978105393
176 69 8 -4.831684697547764 -1.0955349751387762 23.8286748524105
177 69 8 -3.708856843043965 -1.3428412305732178 25.594482813500317
178 69 8 -3.824778678845829 -0.40002872120987293 26.33430036775015
179 69 8 -2.8287163792719867 0.05223146545607416 28.067219219333033
180 69 8 -1.9515518283502942 -0.23526842262538872 27.298931392285713
181 69 8 -1.8135982473313401 -0.6140066294201849 28.61457500227302
1106 76 10 -2.1619663233294184 -1.4728010290322306 27.866870603406994
183 69 8 -0.6687311431722915 -3.1708302884187347 28.76128932380986
184 69 7 -1.0237275730489233 -1.364548923806299 28.924960988307276
1028 76 7 0.2509955729481144 -0.7062555515492824 28.443962060769934
1023 76 5 5.597297268725175 -0.2826067637096245 25.566883804881225
187 31 7 1.8938520476143736 -1.467112936025348 23.57136432210917
1091 76 9 0.7064651424388726 -2.2576734968813157 24.618459295575814
189 31 7 0.25616379092727837 -2.0765900043012135 22.894835534446496
190 31 7 -0.6854511573730395 -1.323016146320108 23.411209593224278
191 31 7 -2.1551883111821457 -2.8423952368582297 23.299420906011388
192 31 7 -2.357888536068329 -4.375426971034992 23.203235053115552
193 31 7 -3.1590989963239497 -4.996979706170498 23.688836806938323
194 31 7 -4.180902857994088 -5.659332381968263 23.239657633426123
195 31 7 -4.075459280590997 -5.898444214862672 21.5619727100406
196 31 7 -2.521727529615478 -5.729463310751488 22.73234935429487
197 5 8 3.270069880102325 -1.5767569186457864 12.614178387945348
198 5 8 3.445231321786349 -2.9150390685332654 12.844863365157995
199 5 8 3.8947179609575096 -3.604779942056822 13.492345606498871
200 5 8 3.0287720340955517 -4.516627762870338 13.067657340213133
201 5 8 1.4336530500528035 -3.4662208033371855 13.90456163387662
202 5 8 1.0668207224403248 -2.3363509950307018 14.976835379824633
203 5 8 0.269959999125667 -3.3200071601430103 16.236826286391572
204 5 8 0.9784072545480114 -4.449932843609454 17.09028687499824
205 5 8 1.3976037883404087 -3.1176523014356907 16.808704663068664
206 5 8 2.783082757800129 -2.1558438238441986 17.023457623926536
207 5 8 3.7760031176314723 -3.5650145951334675 17.09532056921144
1056 76 5 3.937115198115143 -8.06861380005544 16.080916846467563
209 73 8 5.075455177130435 -4.043778809745427 16.202810725588076
210 73 8 4.3605911920113 -3.486112024208711 15.236804379868055
211 73 8 5.593253026576317 -3.1777538399439793 13.752499855703498
212 73 8 5.8494512735384605 -4.313551542454968 13.1479877293836
213 73 8 7.097130711028492 -3.889445654351035 12.65380646337069
214 73 8 6.768146546196445 -2.8048695203704126 12.144981019117628
1080 76 10 5.282737609300467 -4.277726233450669 11.726864693539842
1019 76 4 5.41054291271708 0.46820974291719303 13.461617863796821
217 30 8 6.2789089394808535 1.443557978035728 8.459174946196944
218 30 8 6.885224809293268 0.6407216899978118 8.75836393528687
219 30 8 6.087884107356348 -0.20245878340539233 9.90216764926788
220 30 8 7.216814083253485 0.3961169390360437 10.716343379892338
221 30 8 7.3889077694728424 -0.9711419392838796 9.808290075135291
222 30 8 7.990937010070047 -0.5908537973241574 10.749446988986435
223 30 8 8.726218062009051 -0.7579032507800638 8.9204823861759
224 30 8 9.137842784803457 -0.04398460787197303 8.069517196698824
225 30 8 8.228642226711768 1.0274350745375154 7.597844589148945
226 30 8 8.322225595145596 0.6991014310781823 6.061458991603031
227 30 8 7.201267740198575 1.11935029021915 4.806386170042947
228 30 8 8.848902829586214 1.4431724473706535 3.368387148404056
229 30 8 9.693805011548472 0.982361222782251 4.098238178107884
1054 76 10 9.494383435012326 0.261643909055826 5.023039669323027
1076 76 10 10.773543815230928 0.6221480101073467 4.942726311533871
232 30 8 11.365177875530119 -1.0446748891438549 6.388724359193924
233 30 7 10.431078441474552 -0.2136503448566323 6.375388870850397
234 30 7 10.49567209837913 -1.9400599048043787 5.801528769870496
235 30 7 9.615617274839503 -1.4823385578444213 4.906605891582566
236 30 7 10.551979434069356 -2.570514647966083 4.11483479871762
237 30 7 9.447287679634943 -3.798550999433663 3.7139817829782595
238 30 7 8.188473782482893 -3.9106291859877405 3.2402532737238827
239 30 7 6.229030983903121 -3.404142142829522 1.9154674771963411
240 30 7 5.702521584349595 -3.5145008901080987 2.7851479669960773
241 30 7 5.885236453210074 -2.461046612820416 2.2826998323025873
242 30 7 7.570240897857485 -1.963825722555778 2.951095952688938
243 30 7 7.866532406583184 -2.1613956746916747 1.3193800243849285
244 30 7 8.378397710149823 -1.026297088600417 2.507514923083522
1090 76 9 7.045455694907667 -0.524970232982914 2.113899923981797
246 76 5 -1.5097293790671236 4.064706927921874 4.034154586231083
1052 76 5 -3.2542577081350954 3.8174703671247125 5.216684949748527
248 32 8 -4.048467270741466 3.4077122985587356 6.1753166207550825
249 32 8 -3.7248375291581755 2.679077880767785 5.296331053427423
250 32 8 -3.284311521774292 1.312501213547223 4.883629425801673
251 32 8 -3.2167714804250958 2.2142714973070174 4.005095181864478
252 32 8 -1.8247149196657244 3.5614974666180452 5.361523623856043
1105 76 10 -2.3358473349536526 3.6083745583212576 6.345896468765425
254 32 8 -1.1693638124106693 4.420368933478621 8.03288960078666
1071 76 8 -2.8753787030520526 2.5831684571145623 8.4316669943706
256 70 8 -5.2741210789433834 5.163085809506973 5.92408852635415
257 70 8 -4.400379690903731 4.518199595810999 7.05026367644972
258 70 8 -4.751786773672178 4.933446308790846 8.698479850275692
259 70 8 -3.5027475529654213 5.29579725401643 9.498115868485156
260 70 8 -4.035031807659921 4.595892300433306 11.337440797997939
261 70 8 -3.5994717360629083 3.780729950773345 10.139590013406316
262 70 8 -2.7069203262530643 3.5835704141379674 11.055793135927214
1069 76 4 -3.966693886697842 1.2433000218402115 10.507784908897516
264 63 8 -5.305131606120336 1.2567210977217602 10.664628567280158
265 63 8 -4.355932305681318 1.8974729482680606 11.214831023146004
266 63 8 -2.8723726839129773 1.3768171996785916 11.409456943413842
267 63 8 -2.5593646968148818 0.24425783627913197 10.500180168794952
268 63 8 -1.1324053094949365 1.475654691882384 11.209573589292848
1034 76 4 -6.493485202553465 -1.562620665142855 12.446585393869054
270 48 8 -6.433231878618981 0.001560185992478202 15.947770756197322
271 48 8 -6.182665277102398 -1.5966357903576187 16.22384441090446
272 48 8 -4.919163045210878 -2.775031449216306 16.322083935561515
273 48 8 -4.592487044674059 -4.180528550351594 15.369775306419628
274 48 8 -4.722663349586258 -4.043052094990544 14.02454498760211
275 48 8 -3.7448958140572755 -3.2908277349249855 12.910879596191897
276 48 8 -2.924129520938811 -4.775318462435458 11.80615663886913
1047 76 5 -4.639001235881027 -0.5231568816834599 10.97762669721984
1012 76 4 -3.819064548171382 -2.537806589030968 6.940917982827275
1026 76 4 -10.375730246455392 -6.928908794718866 10.530320336099672
280 52 8 -6.674656453080304 0.8919325996202712 7.408795130619016
281 52 8 -5.473285253017564 -0.010242728134042303 6.974423602189348
1075 76 4 -5.55269127288572 4.055636427450326 9.738475019838686
1078 76 5 -4.859754258411391 -5.161270560418031 8.27138600820251
284 66 7 -5.601644191757839 -3.9913092986746843 6.99142214578878
285 66 7 -5.307322894887074 -2.9491253646365023 6.397906803281801
1100 76 7 -6.516877212705611 -4.439298181299766 4.481652054448498
1099 76 7 -6.606267793563851 -0.6769480710765257 4.398958157361634
288 72 7 -6.1894906152498725 -3.88123866195389 5.269416645734553
289 72 7 -7.443997080735463 -3.6724075076931118 6.134896871536406
290 72 7 -8.739406295073255 -4.051576976030722 4.667765744023056
291 72 7 -9.475318888597894 -4.295458011261845 5.490473325172287
292 72 7 -11.249287805414005 -4.1219273680034725 5.258301709811775
293 72 7 -12.562425533342918 -2.5164931976091958 4.644188274913316
294 72 7 -13.399750328164117 -3.912831432839141 2.878257816752732
295 7 8 1.2794250987714515 12.348543632706756 4.534178236830117
296 7 8 1.00592380720834 12.916139541563117 5.687876823923468
297 7 8 0.38885291030048436 13.861437610643216 6.444756922592018
298 7 8 0.17448952046873709 15.325017829281284 7.73998254062673
299 7 8 -0.31498846942920283 14.943949159752732 8.79852062726029
300 7 8 0.4657249717017006 13.76636924919878 8.107869080163912
301 7 8 -1.0903007217784495 13.572460694035215 8.007752924661004
302 7 8 -1.6136793697579503 12.21104323896892 8.83635295776263
303 7 8 0.18674768182975685 13.55639022245533 10.539090803649039
304 7 8 1.282974149449975 12.084076758312941 9.68324609771377
305 7 8 0.6863944244286048 12.767110833038203 9.196079026757186
306 7 8 0.791930073417922 11.471542713619275 8.647543323920836
307 7 8 1.8953995914721893 12.18612046532818 8.21634668016177
308 7 8 3.5950383489669013 11.930417318899313 8.90403809344551
309 7 8 4.070516929730795 10.346780642573062 10.174997831371542
310 7 8 3.579773352059044 11.47264569978259 10.56878131146747
311 7 8 2.7038606019635094 11.097552992091563 10.03207452864523
1011 76 5 6.146066935547096 7.910726950331031 3.962134975865616
313 46 8 5.11245720840503 7.77659370216298 8.665127190859438
314 46 8 4.018122411293481 7.087927358817911 9.016553698309409
315 46 8 3.7975539054061134 5.412903071962096 9.140395298367354
316 46 8 4.293800938281001 4.584742381804752 8.907504507704497
317 46 8 2.8546404411589155 4.509306978046396 8.309573225370784
318 46 8 3.182447800983951 3.754758183511065 8.912700634043794
319 46 8 2.91531431559378 2.831074049559867 7.988274395832336
320 46 8 3.434440296044985 1.9169495281367648 7.283387481236449
321 46 8 3.404391494606907 0.9298485524648465 7.635905450404088
322 46 8 1.491935019046196 1.7109464877552933 7.038553544644413
323 46 8 1.9489150208950885 3.183288454772759 6.944814918052853
324 46 8 1.580476653683199 4.169466057303793 7.383759974958109
325 46 8 0.5675872675173377 4.660346930124536 8.654450388525193
326 46 8 0.18929735195619102 4.886008424109993 10.762003604073293
1064 76 5 -0.3892397575930855 4.598168566514028 5.882721424735163
1088 76 4 -2.4786121710381837 0.4744100073834146 6.1088897139166765
329 51 8 -0.9466022906999864 2.944917449614957 7.2181213623374685
330 51 8 0.23166591571314019 0.9690364444211703 8.310604568910353
331 51 7 -0.885083576876709 1.5183051143459787 8.4110601751596
332 51 7 -0.6640238573360321 1.7352091520489565 9.742504362660087
333 51 7 0.3596193788207968 3.2775113997577305 9.681355404644126
334 51 7 0.14377141297557305 3.0650248682217645 11.079013760649604
335 51 7 0.7919928168925031 3.7031601069224074 12.138228038959097
336 51 7 -0.07412113409262813 4.347928589955216 11.86959448319588
337 51 7 1.0493464960907615 4.240153834670241 14.152160951593462
338 51 7 1.7101481918447548 4.929222010696941 15.213291847556695
339 51 7 0.9199053644193207 4.353306114958576 16.83932759702869
340 51 7 0.4661748256130429 5.563084657096266 16.250927176388934
341 51 7 0.0768109917177375 5.646041442598552 18.18078028797157
342 51 7 -0.24999762003335452 6.64990367092452 19.12501629864582
343 51 7 1.5686835205286227 6.95251658551331 19.204770784852514
344 8 8 8.333531991531247 19.05505544414497 -7.858783730269317
345 8 8 8.812035638887474 17.421731597430497 -9.678827987443121
346 8 8 8.016183308546317 16.051889202639327 -9.08878800352228
347 8 8 7.535662861133037 16.696484033693878 -7.823608860555037
348 8 8 7.310347789857063 16.207450956421177 -6.881390332477659
349 8 8 8.071741202429262 15.60371585115564 -7.330181641879598
350 8 8 7.269996346064091 14.228521755734393 -8.374127625066018
351 8 8 6.481225325541931 14.577578359228346 -9.7937530173964
352 8 8 7.99348999307597 15.276080514824027 -10.929412050295626
353 8 8 7.4687422434153 13.63452641350104 -10.99416563491368
354 8 8 6.882139122967511 12.865685981343296 -12.363457707112074
355 8 8 6.223287109440442 13.907272538452707 -12.581460938470107
356 8 8 7.9792489363710635 12.95152761484897 -12.964299984104562
357 8 8 7.569525567758764 11.166922495887059 -13.172516791384883
358 8 8 8.778858641587309 10.719685717205559 -13.212621072378024
359 8 8 7.9587468805992065 11.149467587447145 -11.883535903709884
1057 76 5 9.911937856354456 8.294297577666695 -13.321298773900315
1048 76 5 8.240205934948197 8.959358569492375 -11.724992343862667
1066 76 4 11.256636552400392 8.6072624107534 -10.61326416780151
1051 76 5 14.383614419324816 8.55015931500872 -13.226308038100724
1077 76 5 7.337253295130321 3.2920275988517513 -12.945393485465022
1063 76 4 10.170254603680448 1.2767612025119641 -10.4530768378174
366 35 8 9.049521572489585 1.6699525912350335 -12.628173117245542
367 35 8 8.559673241789378 3.1737107011493446 -13.15122061380186
368 35 8 8.139175859723013 2.3686737881445756 -13.53136102492265
369 35 8 7.0396456620359285 2.8247215416772398 -13.880257774234966
370 35 8 6.747709903841786 2.2521270881628657 -14.598902753818505
1038 76 5 12.987587226311675 10.234101093447498 -15.37883520592081
1035 76 5 13.921470105656894 7.915194886832402 -20.894802761122783
1083 76 10 12.584067322585458 6.391393189100632 -18.845770826867636
374 43 8 12.44321348622763 5.922791906992868 -17.755493598096866
375 43 8 10.576717655376113 5.9527152878921274 -16.33414678731692
376 43 8 11.24662658927392 4.329293999240071 -16.77579207308098
377 43 8 12.297595628458975 3.6757713636484555 -17.806799149810285
378 43 8 13.111151423447462 3.3295188938254716 -18.487705214062572
379 43 8 13.285736331101063 2.414461994324306 -17.484593528504035
380 43 7 11.572078237003037 1.859462682317742 -18.196036757639508
381 43 7 12.401098763182334 1.8745021419978576 -18.658148780331647
382 43 7 11.89834218356841 1.4805072668383914 -19.8797910900794
383 43 7 11.83666643092024 0.2231338004939653 -20.7204309488866
384 43 7 12.466319558638249 -0.167722360085346 -19.749454635882593
385 43 7 13.296622326965105 -0.9820713533577385 -20.97583811405346
386 43 7 13.899210594762982 -0.11830427419626798 -21.835113242240716
387 43 7 14.955855817620062 0.16103082285220172 -22.879675330747204
388 43 7 16.406311183844167 0.2090153455989309 -22.57643684245263
389 43 7 16.62858557626185 -0.1940659808594793 -23.88106311711276
390 43 7 17.372743012102877 -1.4727565376736584 -22.714024246029638
391 43 7 18.248218728182625 -0.18912977395792854 -22.4924152026866
392 43 7 19.950483225561623 -0.4336643248450454 -23.09774695877937
393 9 8 -4.050789457102773 -3.163032803059798 -15.243837673242313
394 9 8 -5.300856539866102 -2.6318556162165425 -15.152797992730813
395 9 8 -5.9921264137113255 -2.6957506187076694 -14.285706583439607
396 9 8 -7.150108260299936 -4.9082722647903445 -13.462337496115088
397 9 8 -8.314709075106018 -4.233755950687597 -13.046394770396834
398 9 8 -8.832296592692346 -4.539554140134251 -14.462754436109025
399 9 8 -8.85669529028455 -3.0239028695319274 -15.18904656870378
400 9 8 -8.46037126501924 -1.7194887970302335 -14.082311609491532
401 9 8 -7.905242165589949 -2.2586274911020445 -13.210048581626891
402 9 8 -6.746205246686314 -1.4527090680834502 -13.296144905851312
403 9 8 -5.302510320835714 -1.9784611364636562 -13.539967710097867
404 9 8 -5.1308198080356 -2.2484228565419904 -12.51951901011656
405 9 8 -5.379503167537694 -1.3444011000936753 -11.7026986198826
406 9 8 -6.532658130691191 -2.65071178441483 -11.464408011923272
407 9 8 -7.5011207873369745 -3.0306967663795064 -11.195670360412413
408 9 8 -9.977774601062364 -2.437630623503291 -10.642763862235295
1010 76 4 -2.653067974057046 1.2903514664279643 -10.709083013256235
1022 76 4 -8.385309391207365 3.0046838883065035 -6.183187046128098
1016 76 4 -6.948586946459787 4.509508897521649 -6.080855018466672
1029 76 4 -1.9735415900407483 -1.243695727051094 -5.968044953146377
413 54 8 -5.888345419113055 -2.0369442816045997 -9.045840962868686
414 54 8 -4.990350172712195 -2.9000112921501353 -7.867802212616611
415 54 8 -4.080658279534114 -1.9856960994540693 -7.712889376981777
416 54 8 -3.837175727943023 -0.5969873732811418 -7.075407035098549
1021 76 5 -8.15617402717011 3.709035303467609 -7.551687709719085
418 33 8 -8.384889294047316 -2.725354614348993 -7.947342042716853
419 33 8 -8.278068236683346 -1.480616215908683 -6.890765651443551
420 33 8 -9.50592320003414 -1.5443335288418583 -5.902832327018367
421 33 8 -9.418658975239675 -2.521753407510644 -6.231394452149465
422 33 8 -9.476037545064807 -2.970350597593086 -7.542496689901525
423 33 8 -11.322291722022078 -1.7473010826591893 -6.309558957560169
424 33 8 -10.849706894549739 -2.65892990259615 -5.968180328150248
425 33 8 -9.996793782048087 -4.257121943507638 -6.278762181727819
426 33 8 -11.228914429260028 -4.568911894162574 -5.688165158799672
427 33 8 -10.798478836469036 -5.082378835796262 -7.181426863939126
428 33 8 -11.410300709462437 -6.255470505139816 -7.498410753762105
429 33 7 -13.696701393316161 -6.598262722613675 -6.966393446126359
430 33 7 -13.104219832202473 -4.989973679095378 -6.922685748291436
431 33 7 -12.392670073937662 -5.900712382482489 -6.210340134996475
432 33 7 -13.032954071555652 -7.793663937965303 -5.262949528689233
433 33 7 -13.096546478549985 -9.284743822824836 -6.087358253949048
434 33 7 -12.169729174787333 -10.506689161402432 -6.159942548904461
435 33 7 -13.18172075910113 -10.914278165554075 -6.91460032092645
436 33 7 -14.503693072621779 -9.308503745411224 -7.929356191980293
437 33 7 -15.292293185388733 -8.03845316830806 -8.047474198965139
438 33 7 -16.31801926657623 -7.532401166646587 -6.561592871553654
439 33 7 -15.015806983336992 -7.647860856616534 -6.981675244591773
440 33 7 -15.810084860344654 -9.516946259341854 -6.418316774138879
441 33 7 -16.358805520706056 -8.996992100133053 -5.021692360159096
442 10 8 -1.5816382213614935 19.02356381658635 1.7433259296540313
443 10 8 -1.8677257244021876 17.88872307663508 2.517456185102255
444 10 8 -2.26017877200877 17.748336686361494 0.9310813733663662
445 10 8 -3.3383686000587556 17.109038185106048 0.7840190571220884
446 10 8 -3.172113066872954 16.87634436611719 -0.6884992294946042
447 10 8 -3.7690369391879583 15.446339578324297 -1.7278696294797944
448 10 8 -4.403019351652652 15.130448647462305 -3.3588684904784722
1082 76 10 -3.521166367421351 14.972220163317898 -4.463551923654108
1093 76 10 -2.797179408881435 14.35249260074804 -3.8309562174714644
451 10 8 -1.8609775651622988 14.254794922491824 -3.366094916623226
452 10 8 -1.634830800963963 13.382486742054287 -1.9526548251140028
453 10 8 -2.5269085584290467 12.250065804003492 -0.862865843689504
454 10 8 -2.2763314487454287 11.445855956272633 0.3102214980059824