# Generated from readdy-to-lammps

1005 atoms
621 bonds

10 atom types
1 bond types

-30.0 30.0 xlo xhi
-30.0 30.0 ylo yhi
-30.0 30.0 zlo zhi

Masses

1 1.0
2 1.0
3 1.0
4 1.0
5 1.0
6 1.0
7 1.0
8 1.0
9 1.0
10 1.0

Atoms

1 1 8 -13.610777031546117 -8.926489309754034 -10.617197839971837
2 1 8 -13.324570873858987 -10.042049457696715 -10.928536787709339
3 1 8 -13.2308518275209 -9.308766817504631 -11.627671819416923
4 1 8 -12.014480247200098 -9.213633038550086 -12.201300627374017
5 1 8 -10.736504163679838 -8.888301858493794 -13.07027076874769
6 1 8 -11.865531886469322 -8.350109209918703 -13.264052693050845
7 1 8 -13.06484908439692 -7.674595191877487 -13.780557332066394
8 1 8 -12.642236207870756 -7.471785744347162 -12.035234129308314
9 1 8 -11.668189681554548 -6.165229905702593 -12.690627422774075
10 1 8 -11.678495946429276 -5.3442371579290855 -13.491205689306177
11 1 8 -10.388044281529616 -4.843580954148982 -13.729855041107793
12 1 8 -9.359245492574361 -5.496456291528663 -12.869996108506866
13 1 8 -8.83244683728542 -5.1783517546186335 -11.738943595696195
14 1 8 -8.007669886264173 -6.5355902119196445 -12.152949761524335
15 1 8 -7.168222320785045 -7.349976043668546 -11.359228491079719
16 1 8 -6.2845979232952836 -7.539864520373453 -10.550423079572242
17 1 8 -7.737467501433097 -7.12020938193113 -9.388553474610156
18 1 8 -7.616913176990247 -8.605563721005787 -10.56442930527902
19 1 8 -8.884489690595219 -8.361690664859331 -10.347498396178489
20 1 8 -9.876563164711975 -8.112210143767642 -8.595277058848422
21 1 8 -8.864222472921561 -7.881579655887806 -9.186914605418076
22 1 8 -7.497676128454249 -7.949441495530414 -7.921594407814439
23 1 8 -6.971447526854225 -8.803347570691738 -8.41721125711179
24 1 8 -7.144746867120646 -10.126995308509443 -8.17981582430178
25 1 8 -5.726070605297115 -10.190156240143674 -8.202457388706511
26 1 8 -4.747153897151225 -8.154888582668523 -8.522230134913421
27 1 8 -5.987384796054652 -7.320951241464918 -7.716737127678648
28 1 8 -6.138272030496138 -8.029266760129303 -8.590681403609294
29 1 8 -5.667942748054711 -7.956223046745304 -9.746084611989449
30 1 8 -6.129182433043261 -8.914147381157225 -9.561229622743399
31 1 8 -5.500460210479773 -8.830163407559874 -10.710754003638831
32 1 8 -3.772661730364754 -8.991098591926002 -11.097961546053867
33 1 8 -3.721781228411289 -8.73863919517115 -9.843195316251698
34 1 8 -1.9829669458554045 -8.331186653162938 -9.503079264654561
35 1 8 -1.171865414531996 -7.516540853949563 -10.737160644797601
36 1 8 -1.3726999857965128 -8.173321315185262 -12.118844532180615
37 1 7 -2.053188845135628 -9.224863346401401 -13.413805905782661
38 1 7 -1.6042622806913571 -9.13751924201022 -11.447356610589585
39 1 7 -2.4058457667349153 -7.990930963360271 -12.459335315456443
40 1 7 -3.8422441169903836 -6.720001122470258 -12.306775326100432
41 1 7 -3.597158989682667 -7.971636435232385 -12.244708747832982
42 1 7 -5.332499717215643 -7.944519709543186 -12.361433508391091
43 1 7 -5.8608058072710705 -6.846926508522356 -12.558113168724876
44 1 7 -4.660062630074534 -5.6669415400284855 -13.082911402705097
45 1 7 -3.509445999269961 -6.499243257692235 -13.50480096319354
46 1 7 -2.58201023330676 -5.416257578259314 -12.856644319862173
47 1 7 -2.8279814295499217 -3.54910730733551 -11.87923600684905
48 1 7 -1.4090373268545675 -3.836468800655495 -12.78856667744655
49 1 7 -0.7190550201968816 -4.540054720550971 -11.810836270645789
1050 69 4 -1.6692450380276378 -2.8217218377368236 1.4545339412155107
51 69 5 0.6408699138161401 -3.2389487915788617 -7.546073368293322
1046 69 5 0.8405121847097152 -4.628476272953406 -2.1070075555867995
53 69 5 -1.6684019584231242 -4.742130282688449 0.601773209902974
1042 69 5 4.019347198786159 -2.9935837589888963 -1.1473946729928108
55 55 8 4.274821682284067 -7.125794620693106 -0.5014906854083259
56 55 8 3.5851680161379935 -5.121300146833604 -1.1555397322928571
57 55 8 4.38616530312879 -6.024585257107851 0.14819859038586636
58 55 8 2.9334288174405487 -5.801121485412265 0.05406136577736538
59 55 8 2.3519787867681528 -5.811199900309807 1.8201419556065206
60 55 8 0.860916080777795 -6.1000396114208595 2.2339005344108176
61 55 8 0.33967657596097084 -4.799542613022625 3.120437113186114
62 55 8 0.28554692279309024 -6.023469966639003 4.192453231869395
1007 69 4 -1.2237614646660675 -9.924222798620926 6.860266103240571
64 27 8 -0.6413753066402936 -6.284599636377969 0.5962961086858545
65 27 8 -1.695375804738649 -5.760116914799286 0.7734886794639972
66 27 8 -2.5123190941112514 -5.50893106274272 1.518556190066249
67 27 8 -1.159662454120983 -5.983553564031739 2.44205394239178
68 27 8 -0.6461407715004848 -5.810639946545572 3.8699319247966066
69 27 8 -1.5523660747728856 -4.733032167530773 4.722509925567852
70 27 8 -1.7239459611660166 -5.966686638893281 5.087649562606489
1036 69 4 -2.529704776927939 -3.372688440255407 5.839338903251579
72 69 5 0.08870885108819458 -1.6158581401504053 1.5209007937266834
1009 69 4 -1.7465026291337904 -3.746571446053096 8.025540205950739
74 57 8 -3.4841008750949647 0.8940334905318309 1.0631991113317798
75 57 8 -2.8825535961013276 0.8637626967562403 2.107495218401722
76 57 8 -2.810567793838773 -0.264236837121509 1.629842685732003
77 57 8 -3.468810432010647 -0.08825233812083344 0.4079616327695368
1074 69 4 -4.372544933418091 -0.8128888665010529 1.5199324079632188
1037 69 4 -4.887497280248393 2.444695072581173 7.40621088635926
1017 69 5 -7.530961599468587 0.8425040373511739 5.690291926560538
81 60 8 -2.9928127358843444 2.8804669655822983 3.3961638858902266
82 60 8 -3.5257256846093834 3.898616154225964 2.730842518424603
83 60 8 -2.098715007524159 4.269405212450353 2.686681575288515
84 60 8 -1.0796044259577988 3.565706276536164 3.080246953404805
85 60 8 -0.017696985231484306 3.5629258740474734 3.7633932326851083
1079 69 5 3.618093784290634 2.51682796210509 -0.1822121037029383
87 63 7 3.1708210278749975 2.577106933300183 3.3674959741286057
88 63 7 1.9367812627947902 1.3941400093689205 3.8834080950269083
89 63 7 1.785265083522284 -0.0429925332338078 2.491867197117013
90 63 7 2.262964219991381 0.4055780240562429 0.6636508754491747
91 63 7 1.7593545485792201 -0.9443278471108415 1.9166991926737549
92 63 7 0.7017967091524958 -0.8614091535839457 1.3463463665112203
1044 69 4 -0.3086454233216278 -2.5045917539837603 -2.803487599472122
94 59 7 -0.1286713891363843 0.7150700005348521 -0.46576837842063973
95 59 7 -1.114454033107512 0.5623317220895165 -1.263076489395129
96 59 7 -1.9319326753049797 0.29432333158303636 -2.222547939644691
97 59 7 -2.7927363430599774 -1.016944083915929 -0.9763876322751474
98 59 7 -2.939123952018301 -2.5647982058796837 -0.9399195413666152
99 3 8 1.8148669203773848 -7.967451373996738 1.1484851090692971
100 3 8 0.9899939628202072 -9.16673484163703 0.9075206860149269
101 3 8 -0.6251079568688787 -9.436149601330575 1.5062519693798015
102 3 8 -1.3314586809853137 -9.202237640270992 2.3631301212821842
103 3 8 -1.7424920208584291 -8.845660749832119 1.3162139153046046
104 3 8 -2.737506290410235 -7.2813505503684475 0.7773699682510357
105 3 8 -1.3528324251549868 -7.351556278954043 -0.2530152709107747
106 3 8 -2.409857023639484 -7.562666189684642 -0.3783766874400593
107 3 8 -3.4631634470075046 -8.925629919918888 -0.6070176159859084
108 3 8 -4.265805979709381 -9.067852086618963 -1.5044960296263614
109 3 8 -5.257352425451669 -10.064587653166639 -1.5516523007852825
110 3 8 -5.992478461777855 -8.874056546755329 -2.084481832891331
111 3 8 -6.024775000438856 -7.615066448383938 -1.3452517008138984
112 3 8 -5.964528557800722 -9.05430134714228 -0.9582747088027334
113 3 8 -6.357084784170674 -9.914301969079926 0.2803453801986146
1024 69 5 -4.408153121074954 -10.598281720017866 -1.3788766052627697
115 45 8 -5.927266993651324 -10.625640989248721 1.1328816619994664
116 45 8 -5.209313672618596 -10.328643101016983 2.439557597135558
117 45 8 -4.8290905959934305 -9.189709770762907 2.59578985829641
118 45 8 -5.125074155562496 -8.708049620003148 1.6912584461524545
119 45 8 -4.799938575630018 -9.93110436872997 1.3977243471093397
120 45 8 -4.065395410267914 -8.615720228879212 1.4980083365538133
121 45 8 -4.3105701053221335 -7.293698181666601 2.8931155992280972
122 45 8 -3.0472586693328663 -7.898202979004452 3.9306646841440243
123 45 8 -3.673606046622437 -9.675182824883786 4.418867236893256
124 45 8 -2.473045649362445 -8.696389070531636 4.085151861713743
125 45 8 -3.7926039617609826 -8.333920525021897 2.9636718211722575
126 45 8 -2.5092130646696718 -9.738417363795078 2.540960414821025
127 45 8 -3.3536155329613564 -10.337907154831496 2.2821755207378334
128 45 8 -4.278718933338457 -10.826153158851877 2.555683369171793
129 45 8 -5.487555496547924 -11.828148803390594 2.9212257380256275
130 45 8 -6.633166337106642 -11.835253223861288 1.863028663143863
131 45 8 -7.167167017968281 -12.337204344687628 0.8900472246913016
132 45 8 -7.78437850027196 -11.664451775547853 2.2726256756794374
133 45 8 -8.841471914393608 -12.566772035270862 2.684324400584511
1084 69 10 -9.654120219123673 -13.375585058085797 2.3128777864846395
1025 69 5 -7.2609787374791095 -14.530112314201348 -6.363970417571077
136 42 7 -6.018136628771438 -15.862658156760595 -0.90217828780377
137 42 7 -5.558557714758029 -17.37476355300955 -0.5631755556573829
138 42 7 -4.917400532744989 -16.886989657987073 -1.5440182570554988
139 42 7 -3.458222796037488 -16.27555803444216 -1.009433795483824
140 42 7 -1.9524761537047592 -15.694803664935764 -0.2977557632697454
141 42 7 -2.20507675226444 -15.540092076627069 1.1677697510423766
142 42 7 -1.7442376481197581 -15.380822375711604 2.1053035648008436
143 42 7 -2.920803170118927 -13.868158719855755 2.1579215475817874
144 42 7 -3.921174422047285 -13.837713874363738 2.0503402545289657
145 42 7 -5.361069325180167 -12.770349699633615 1.2035964852219057
146 42 7 -5.318666526332354 -11.752403160547566 1.9808078125128903
147 42 7 -4.597235479501504 -12.309774679889635 3.251866786406218
148 4 8 0.03158888256142219 11.035764453067658 18.640769274820123
149 4 8 0.35522995178029365 12.39067902909023 18.47811866347968
150 4 8 0.8255021731479576 11.63433790831753 19.029590111490517
151 4 8 0.1470277846935666 10.939053851910852 19.903476352544693
152 4 8 -1.351072500107988 10.346988702531121 19.14442140789133
153 4 8 -1.1468162688044123 9.976181310844135 20.332565645328984
154 4 8 -2.4079436142708883 10.297824345612563 19.586145222763356
155 4 8 -2.200084315800757 9.045398142253328 19.009525791797945
156 4 8 -2.7075826457193646 9.362797418576303 18.0302282813118
157 4 8 -2.55740612333595 8.24576974042922 17.10592525351954
158 4 8 -2.2220722973020064 7.641578319886868 17.82704408344314
159 4 8 -2.7092104089741804 7.571185426168119 19.132657718546735
160 4 8 -3.461918526717676 7.104222797186738 20.331555444424588
161 4 8 -3.8004479184831124 6.020325249858926 20.11664375847456
162 4 8 -2.685845006562834 6.050465773957536 19.9331054767436
163 4 8 -2.9737791443851167 5.438904536204984 21.148686502917947
164 4 8 -4.002058707489011 4.8751325024284995 20.4786764686123
165 4 8 -3.766733802973626 3.8808330238678 21.795805311006294
1031 69 4 -4.925077377786728 7.652692585389339 20.733117459592016
167 69 4 -2.74976159907664 7.9925933168804395 22.180151956544776
1043 69 5 -4.488305744903198 4.839886422400469 23.258579576180303
169 64 8 -2.932402814875113 3.304130059417463 23.775957858120496
170 64 8 -4.270586649585979 3.56372288757799 24.961422289127636
171 64 8 -5.112094068992137 3.7515034818216253 23.276017734650996
172 64 8 -5.503266946593712 3.0165631213127937 23.949081407998495
173 64 8 -4.433393372963835 2.577403118144146 25.389120188270915
174 64 8 -4.630581798255486 1.971452777797229 24.20214365819125
175 64 8 -4.957239246775748 0.600447329651916 24.007744450167678
176 64 8 -3.920182725748615 -0.2460599038457773 24.40893915197177
177 64 8 -4.934541211675323 -0.08593471063486369 26.159108005864258
178 64 8 -3.991458114105804 0.31682174716824324 26.80658690540836
179 64 8 -3.3018706124691564 0.018355240726939063 27.99009651919992
180 64 8 -2.144909443947151 -0.5671793520346762 27.191819314518934
181 64 8 -1.5681077924550537 -0.7783267709819747 28.8351685128939
182 64 8 -1.4448545684635794 -1.9229228191446286 28.481452883622097
183 64 8 -0.35749777851867764 -1.2058269483544666 28.31892373480649
184 64 7 -0.05309434717540419 -0.07922686228935749 28.128998298650412
1028 69 7 1.4110620868540897 -0.5387540769479015 27.084249769157402
1023 69 7 3.388011731782896 -2.0220353754302005 26.867298908713295
187 31 7 1.1300055979538406 -1.1144783999181438 24.494250758227913
188 31 7 0.8821325945723488 -2.206611268817404 23.126355233103848
189 31 7 -0.8142263179259281 -2.1193347898389314 24.4186334359641
190 31 7 -2.8921456400664307 -2.0374763807845837 24.717246468597097
191 31 7 -2.9598920380558678 -2.776857942505092 23.285305013617915
192 31 7 -2.4294982128065237 -3.995269921943089 24.147724594500556
193 31 7 -3.272288252647233 -4.907538872149154 23.911503750251363
194 31 7 -3.5081602024660903 -6.6527191305087445 23.240602998975703
195 31 7 -2.7031945339718355 -7.415977358809488 23.835420168133254
196 31 7 -1.5626832252195044 -6.964184412748171 21.426684242840935
197 5 8 3.1156139651950676 -2.4966277160314756 13.454528437182484
198 5 8 2.5828820852899117 -3.2492784058242625 12.17639655738362
199 5 8 3.106234624980323 -4.409237266982553 11.573639532053203
200 5 8 2.465683199124583 -4.112473872803149 12.958744468571414
201 5 8 1.8084243923474292 -3.3345474045197196 13.546848670097267
202 5 8 1.5932187863524465 -1.4480642151734207 14.25125294165152
203 5 8 0.6685405716118017 -2.663149661127948 14.42721918580873
204 5 8 1.6938056681769464 -3.123224170148205 15.079180737820854
205 5 8 1.3137261263759026 -2.8520636675748685 17.233702614975233
206 5 8 2.9866893667923513 -3.538409224684911 17.626256477714968
207 5 8 4.451075561927014 -3.783076186403986 17.235174360360887
1056 69 5 2.2224076195245153 -5.811669914079128 16.053088920971344
209 66 8 5.0866285347273505 -2.1175472407220663 16.242988084230642
210 66 8 4.2335946432040314 -3.5265001706369548 15.191880447687979
211 66 8 5.7474632634879805 -3.800204879393393 15.46590434234513
212 66 8 5.5159747765151295 -3.2294163224282997 13.925958176331527
213 66 8 7.191370894814888 -2.537335424725858 13.432730684536438
214 66 8 7.078609418122061 -2.0231053478854855 11.671178571232304
1080 69 10 6.726008510335574 -3.040065560746826 12.595672513964251
1019 69 4 6.25178035663337 0.9565667861243011 12.007313515861373
217 30 8 6.355594190431639 1.516388394142824 8.613458159917485
218 30 8 6.30607595146637 -0.009862546031837576 8.522344440003543
219 30 8 7.7783950572406715 0.9660442643072844 9.504275082995647
220 30 8 8.870904296335594 -0.2687545769806249 9.94025953104483
221 30 8 7.235921146452265 0.08330177804337492 10.74223507013583
222 30 8 7.1637603248242305 -0.5371385331218762 9.360672464289511
223 30 8 8.41857093157091 -1.1314020679818941 8.103888826482853
224 30 8 7.9554126584323015 0.345787279187216 7.8444293481014435
225 30 8 7.4630758378862 1.048351403998702 6.649817104167392
226 30 8 7.705258527225213 0.3848932889622816 5.28649545296435
227 30 8 6.208619181967251 0.4206940693103998 5.030755148908521
228 30 8 7.15489377164517 0.9951502539511347 4.615928107596356
229 30 8 7.669043764097154 1.8131812088290458 4.049939023559278
1054 69 10 8.617381414849405 1.3612216019088044 4.903291684862543
1076 69 10 9.679024961729361 2.1791891139267845 5.849705059665257
232 30 8 9.876050745328183 0.7471242348017144 5.752762504144956
233 30 7 10.416995211759755 -0.9744324786495925 5.769594035290594
234 30 7 9.69230774513918 -1.258571191550967 4.505343303446647
235 30 7 11.060335408470017 -2.0890565816411817 4.868916040872912
236 30 7 10.79921781838093 -3.287206473631847 3.0749971808735816
237 30 7 9.711885131609524 -4.553789619427964 2.76583125288125
238 30 7 8.388364458140384 -4.200261461569918 1.7911409777527632
239 30 7 6.918537834735918 -3.6690562646150853 1.2435445859996603
240 30 7 6.065303079474445 -4.085554694252149 2.527440001166893
241 30 7 6.04701730522673 -2.8354232850901453 3.2253149669005294
242 30 7 7.8853076963027755 -3.1070565826712024 2.558399920728016
243 30 7 8.523555404896223 -2.655007378162249 1.7678996659836343
244 30 7 8.744055939567025 -1.8300995156192164 2.6838100133626113
245 30 7 9.882461722300151 -1.1352992439443583 2.360403925523059
246 69 5 -0.3184748964431768 4.25279104310005 4.707572078474863
1052 69 5 -2.2012263267891035 1.9026467767312716 5.224463759614802
248 32 8 -4.380279974201549 1.8808333209976669 5.6304026385764985
249 32 8 -3.2288341442545487 2.0225252346124334 5.516827079417699
250 32 8 -2.8400938578184 1.6057139410259762 4.255350911129699
251 32 8 -1.0311820548667243 1.8547161167343307 3.9860133426554807
252 32 8 -0.22601286686704497 3.104103028752426 4.830019440692948
253 32 8 -1.0416382593622133 3.877044765603896 6.29603829321752
254 32 8 -2.4335652629639664 3.597152016415938 7.0960756032878285
1071 69 10 -2.9483878038605105 5.084001075119302 6.846931778659599
256 32 8 -4.278670144252659 4.470689739405764 5.995284124729137
257 32 8 -4.107226059260504 4.060971234561816 7.177876127209307
258 32 8 -3.711494983588918 5.126647781413803 9.085743328903805
259 32 8 -4.070029343892717 5.923713071129342 8.60767258314093
260 32 8 -4.557039275196473 5.056550136820554 9.674888880730173
261 32 8 -4.136180978743667 4.064679544477405 8.834984630575175
262 32 8 -3.751571934558997 4.094967651455077 10.007394926276007
1069 69 10 -3.739149711912642 2.705455623968376 10.520618638702137
264 32 8 -4.754396834690755 3.1493996324824436 10.29475520671666
265 32 8 -4.447897516410703 3.391736392662775 11.807034063133926
266 32 8 -2.8826718733551076 2.5798975014918524 11.33164456751457
267 32 8 -1.3444695941198335 1.2778739775122276 10.705119469068995
268 32 8 -0.0703688514200715 0.9237210759922933 10.704747883627782
1034 69 4 -7.12697510059923 -1.2547931400838255 11.707619027832319
270 47 8 -4.320028863840232 -2.117395690818999 13.901882284123822
271 47 8 -5.068617534113173 -2.6601889935818095 14.419890628469103
272 47 8 -3.4599947653745717 -2.393809998839115 15.234262361652297
273 47 8 -3.995102481884796 -3.3164760008513854 14.165658868180108
274 47 8 -4.415366938384729 -3.745683788383159 12.604965799921747
275 47 8 -5.387609453586962 -5.281054362596144 13.290688294402017
276 47 8 -4.846671120196293 -5.0965476952122355 11.739501654984815
1047 69 5 -3.155705212190343 -2.051867579051821 10.43233009457074
1012 69 4 -3.7264063308490374 -2.1053322468975297 5.408145050844336
1026 69 4 -6.794361464434909 -6.61934769570396 9.838474231469958
280 51 8 -7.704634010599051 -0.3964662979734316 8.42145824257781
281 51 8 -6.892073094772253 -1.748142371980106 7.784830924016105
1075 69 4 -5.306305285437392 1.2346121846523768 9.48678469708722
1078 69 9 -5.154890979329116 -3.6659491109226314 6.776033101838467
284 65 7 -4.120528749564412 -4.560430186048267 6.932642984812902
285 65 7 -5.208889933552716 -3.7308661778049537 5.401546282109573
286 65 7 -7.167916974396613 -2.1218251867269613 5.258815829176427
287 65 7 -6.566784475740784 -2.1957942886627135 6.490565824546855
288 65 7 -7.142144015669947 -3.1069760340013626 6.442131315790779
289 65 7 -7.490960112842996 -3.978086404965363 5.1595900827826044
290 65 7 -8.22758654600997 -4.596153723344875 4.189651165988044
291 65 7 -9.86864304072616 -4.859410271711934 5.016463571793252
292 65 7 -10.616745078483618 -3.9474988543959957 4.56660557988339
293 65 7 -10.938844666076799 -2.949781594769793 5.473435172505261
294 65 7 -12.339037407764055 -2.1291903127634217 3.829820376813252
295 7 8 2.5188518916690077 13.697878336063326 6.575185329979403
296 7 8 2.153656205597952 13.680079553997924 5.412659600515091
297 7 8 1.5131963834312308 14.514195983524074 7.498314964731853
298 7 8 0.5426913748114467 15.231503737071934 8.28421329916478
299 7 8 -0.663294928308795 13.841939089836128 7.199993564056528
300 7 8 0.4817464271619775 13.719600197181128 7.398156284568285
301 7 8 -0.028911383561961584 13.57405696120372 8.430993745697382
302 7 8 -0.2419506617707803 14.016210457176644 9.816829485631375
303 7 8 -0.19286062774121293 12.961255368548416 10.730799697261723
304 7 8 0.621081857499349 13.844132189670928 10.586636520048973
305 7 8 1.2374366810639525 14.021700756028654 9.388316613587723
306 7 8 0.288273057983244 12.379592279472536 9.257360045872312
307 7 8 1.6388006407218503 12.380009589252783 10.339168996032535
308 7 8 3.3471781352360255 12.094291043529386 9.956140863619622
309 7 8 4.670910981693211 11.7272754046713 9.41455419014082
310 7 8 4.478790527734259 11.80903510849908 10.997152150469987
311 7 8 2.660776074739958 12.30936543875193 11.087347717211134
1011 69 5 6.662311569390956 9.141666745806527 5.9986617809050475
313 46 8 3.6993632851356537 8.659182736879291 8.313618765828565
314 46 8 3.0118127412525553 7.641790360663996 9.373791385561761
315 46 8 4.168714013258455 6.872044088867743 8.939228796232737
316 46 8 3.1646159241240004 5.176635016674085 8.932443407258106
317 46 8 3.153827638645105 4.300331332413508 8.364264325414513
318 46 8 3.2651737330778547 2.7907305438829852 9.302637071642023
319 46 8 3.806270807480602 2.1265734891398598 7.689503585591578
320 46 8 3.253704861279891 0.9332544985694181 8.16770991667801
321 46 8 4.442685916384499 1.0178676852870348 7.872896083160354
322 46 8 3.0211798071968374 1.6909919723245361 6.998629174957211
323 46 8 1.5340197523970542 2.742288724708926 7.290613071985748
324 46 8 0.531836199092883 3.621551582565587 7.567444698193606
325 46 8 0.06392505553634757 4.306712240267261 8.932400115205134
326 46 8 -0.8358777353008253 5.619059321006607 8.205762475471323
1064 69 5 -0.13364849318055227 5.94772923375913 5.325317879365058
328 2 8 -1.6023771370406843 1.6609645340370018 6.9050328160105225
329 2 8 -1.709148716090725 3.207464546769708 7.7697464579213324
330 2 8 -1.613106653083131 2.083387244911698 8.386044690728884
331 2 7 -2.037543169120933 1.0664673855282811 9.116860733888508
332 2 7 -1.198061688946546 2.0709486276201705 9.968037838995672
333 2 7 -1.3658045602935838 3.1531191749477294 10.41403453449511
334 2 7 0.5197907921212183 3.541977272300643 10.51979110036524
335 2 7 0.6950095306536351 3.7424740372711143 11.586330758612064
336 2 7 2.5503929949863706 3.883216434955885 12.011520693180548
337 2 7 1.8281154571935656 3.4524089064554326 13.767972518227326
338 2 7 0.9738490456778548 2.626697321344234 15.040129780518626
339 2 7 0.4169939417081669 4.52433275704039 15.63602118784889
340 2 7 0.9192063924163532 5.650387861543388 17.09788681594488
341 2 7 0.054847782088316636 4.684372635450122 18.084875724349857
342 2 7 0.17102016611086016 5.804853181888287 18.48476875482616
343 2 7 0.4255693705817607 6.403275071008398 19.543814145526337
344 8 8 7.9338125414768355 18.550235156336747 -8.77946057216682
345 8 8 8.904350480695745 19.329232916588936 -7.934956756900635
346 8 8 7.815858264898945 17.502204309972946 -9.219921067616175
347 8 8 7.230380763126973 16.549097595478315 -8.615200243980308
348 8 8 8.156728658783653 15.963040559049482 -7.4946140781187385
349 8 8 8.869174304528233 14.388093087575115 -7.1349251607339275
350 8 8 8.666522948085111 15.038661256816662 -8.549088797658792
351 8 8 7.5204153398044955 14.08324721096685 -9.02361497709419
352 8 8 8.1624141588108 14.943214845978293 -9.613800165868058
353 8 8 8.099651945708333 14.038565828092217 -10.414755178662967
354 8 8 8.186861270233125 13.004028127980744 -11.265844897824492
355 8 8 6.860778165371109 12.74382356682506 -12.363917075433024
356 8 8 7.081374893768619 11.589200827951222 -13.550721225768351
357 8 8 7.41768608400607 11.319071054538416 -12.37570646702963
358 8 8 8.402279609947987 10.756269801214824 -13.137638970320301
359 8 8 9.259454213344794 11.139398476184446 -12.107657904236763
1057 69 8 8.97681906859377 6.751438407002248 -11.82443284106985
1048 69 5 9.01704376611909 9.095337341452193 -10.535871841442372
1066 69 4 12.331285400832655 6.799847321381406 -11.142377863321677
1051 69 8 12.600571347203658 7.076689359905308 -12.902051200184086
1077 69 5 7.857193802740488 3.4658608297396434 -12.186006422069593
1063 69 4 10.379106964863684 1.3375404345278126 -9.979215030788296
366 35 8 8.285335286185445 2.4966023860192874 -11.816901830442873
367 35 8 9.31633725866106 1.69771380215995 -13.11362995674835
368 35 8 8.311190589781754 2.1513089481111396 -14.132182057905753
369 35 8 7.333924583850765 2.6779803442386445 -13.702338258798223
370 35 8 6.536074897686637 3.391688439908259 -13.633409347985967
1038 69 5 10.379082206139476 8.642210680349066 -13.125747806733727
1035 69 5 15.353357002569457 7.979079508432667 -18.654488273748775
1083 69 10 13.984064228029082 6.2679393222683055 -18.042446188285865
374 43 8 13.517620118297422 5.076914700579264 -17.40396486308363
375 43 8 12.07116942949495 5.372633907661278 -17.659774775098555
376 43 8 11.20035759304034 4.546743132938778 -17.83699720751563
377 43 8 12.091495304626587 3.5971728344826968 -17.811553453024473
378 43 8 13.86412062255302 3.252642655293751 -17.504212920976354
379 43 8 13.852175239002529 2.0175116230077257 -18.308076658385747
380 43 7 12.199790469866011 1.2826800625318853 -18.442048196816938
381 43 7 10.80638682589702 1.038119539681639 -19.220823420488617
382 43 7 11.787692298775323 0.8218758126908762 -19.93101852438354
383 43 7 11.043554179664309 -0.6182470114585643 -20.26101172697113
384 43 7 12.17381405283599 -0.02968569967066282 -20.37737108929535
385 43 7 13.160934137951566 -0.6102072651782454 -21.066789925958346
386 43 7 15.360940927624386 -0.2603332632697141 -21.04120433469699
387 43 7 14.598816394690331 -1.7076722363681236 -21.556144637058377
388 43 7 15.779046618111849 -1.0039007343481057 -22.550588840991196
389 43 7 15.895454138818488 -1.432699963807592 -24.652174698389018
390 43 7 17.698141520607063 -1.4491259140966792 -23.483147524425814
391 43 7 17.388222540613416 0.04977736088511533 -21.643715581807136
392 43 7 19.017198483844552 -1.2303787722839525 -22.417074588869546
393 9 8 -5.055683850590383 -2.7368770744241395 -16.739569897303383
394 9 8 -5.853138990158803 -2.1128225593164225 -16.117878839984392
395 9 8 -5.927013390097991 -1.8884527326626943 -14.829165425722701
396 9 8 -5.687691795346972 -3.0449969462351167 -14.404386698450608
397 9 8 -6.35807160498696 -3.9392273106261504 -14.082009059800827
398 9 8 -7.868885023755521 -3.2601901528684483 -14.149850729873656
399 9 8 -9.465982415218667 -2.646343034667761 -14.136578646415192
400 9 8 -8.604727187144396 -2.958485868114397 -13.313781828243648
401 9 8 -6.750364292832097 -2.0894841413759884 -12.96433571109539
402 9 8 -5.6469653364159775 -2.494970433563751 -12.635783158227328
403 9 8 -5.057279145278026 -1.5204790535771304 -13.546518148108369
404 9 8 -4.121188060792785 -0.4565393302167304 -12.910659191522125
405 9 8 -5.2110863728195564 -1.4662612906363846 -12.335275510042537
406 9 8 -6.8962582749904255 -1.3213037041652982 -11.672412660820276
407 9 8 -8.344008085062697 -1.251286241118359 -9.956310603781766
408 9 8 -8.831343207449564 -2.6289065317765243 -11.05406948949471
1010 69 4 -2.4029352162589785 0.4757345439532073 -8.52151205683581
1022 69 4 -8.257021003336916 3.794734046698395 -6.587610450630528
1016 69 4 -7.00014850092989 4.748280970812102 -6.135422914758379
1029 69 4 -2.2294991916919455 -3.325873521582642 -7.216420386416059
413 53 8 -4.417563717055761 -2.740759343877129 -8.468745214639341
414 53 8 -4.417497259419133 -1.2218448614390565 -8.816486600294507
415 53 8 -4.0996983495995485 -1.4016291871957562 -7.5732402439092255
416 53 8 -3.8281350991179552 -0.5128866295878248 -7.0255370533427195
1021 69 5 -8.259014098049585 4.87429601425501 -9.709463191892187
418 33 8 -7.478192046844322 -1.2177148102860984 -7.684861988657851
419 33 8 -7.044975740202284 -0.6563225704526761 -6.784496717687943
420 33 8 -8.006741467822446 -1.0459022503284043 -5.270796937647591
421 33 8 -9.646166788619142 -1.5406269986639076 -5.131416093929406
422 33 8 -9.081988540658335 -2.4268522370840344 -6.152518663500054
423 33 8 -9.6392120148133 -2.9340463563669408 -7.204831741940448
424 33 8 -10.896954732453608 -2.547884852696536 -7.166861883743915
425 33 8 -10.482419920118437 -3.937261801188535 -6.156195986302681
426 33 8 -9.931987569786326 -5.154445783017556 -5.8117135184440185
427 33 8 -11.517463695311381 -5.979606661961129 -6.595556847263555
428 33 8 -12.370687788907738 -5.7099198547582395 -7.043393473061295
429 33 7 -12.682338207067454 -4.297827288104165 -7.987628016572471
430 33 7 -14.062821983018058 -5.5263429682507486 -7.221457405464762
431 33 7 -13.381154141024933 -5.410263815912305 -5.565568631130059
432 33 7 -13.280070422067396 -7.226446368818973 -4.951885516653486
433 33 7 -13.630009707532336 -8.326315972810674 -5.107556427576009
434 33 7 -11.876608809486548 -8.51953583642011 -6.47261158284158
435 33 7 -12.58499569326629 -9.1532188552166 -7.750822433166896
436 33 7 -15.057002102459414 -8.26339316076745 -8.08596907282813
437 33 7 -16.462183546310552 -7.868693490815868 -7.78545619948202
438 33 7 -16.29316950039559 -9.09919342528193 -7.317984688551683
439 33 7 -15.693746320739269 -7.8539925946529205 -6.891804484074468
440 33 7 -14.63669227712222 -8.792115819921753 -5.620149313983567
441 33 7 -15.488727333892069 -7.328978006182351 -5.434176705034971
442 10 8 -0.6927154946620431 17.468440950924965 1.5993433102288042
443 10 8 -1.9561139836168686 16.94455506285248 2.0568835896222715
444 10 8 -3.4043163074652774 16.465419970251865 1.333417395442042
445 10 8 -3.6679277605656573 14.476033763528365 0.36139213643483126
446 10 8 -4.008287780136224 15.529750358605531 -0.4422479293557959
447 10 8 -5.706671943065725 15.002589283637288 -0.9953865334503289
448 10 8 -4.7992922597526935 14.679496777150636 -1.9070636396198493
1082 69 10 -3.629501964584919 14.492219600338688 -3.5722571505116827
450 10 8 -3.0639921588156103 13.604946123010556 -3.450395570098262
451 10 8 -2.677322526710714 12.536899202263317 -2.993904207056326
452 10 8 -1.880412442942309 13.19310688353499 -1.5477219134148086
453 10 8 -1.433739671457736 11.672043934222586 -1.203857135861107
454 10 8 -2.2386596245885664 10.676917592167591 -0.2394173665286859