# Generated from readdy-to-lammps

1005 atoms
665 bonds

10 atom types
1 bond types

-30.0 30.0 xlo xhi
-30.0 30.0 ylo yhi
-30.0 30.0 zlo zhi

Masses

1 1.0
2 1.0
3 1.0
4 1.0
5 1.0
6 1.0
7 1.0
8 1.0
9 1.0
10 1.0

Atoms

1 1 8 -15.344646618961052 -8.558857335761388 -13.633829250878552
2 1 8 -14.462865715395143 -8.612982322262434 -14.217044754719572
3 1 8 -13.824549873674952 -9.072516118887537 -13.150453584210505
4 1 8 -13.354333563885065 -7.765370218593799 -14.250607422551562
5 1 8 -11.884153376448236 -8.857773026060363 -15.005254438123671
6 1 8 -11.511005019511781 -7.672267288940852 -15.587287606202961
7 1 8 -11.823799535581088 -6.033077731454956 -15.0606660580887
8 1 8 -12.543186950506252 -5.953094402876433 -13.943969626159829
9 1 8 -11.039039051017197 -6.396577967256215 -12.59656528418678
10 1 8 -11.809344863800069 -5.323582066509977 -12.26730365254317
11 1 8 -10.341061110986109 -4.4193621189315 -11.821364217808783
12 1 8 -9.396286957019859 -3.7701818783219623 -11.635107908048127
13 1 8 -9.515673070714827 -5.18351049110537 -12.000970066123106
14 1 8 -8.753563661238429 -4.273639221062446 -12.226213493517125
15 1 8 -8.292033679528902 -5.986733073831119 -11.420834755965513
16 1 8 -7.095746655194681 -6.006865921915432 -11.014334912188467
17 1 8 -6.128091385342226 -6.603783946373141 -9.58997926794146
18 1 8 -6.652553480262353 -8.1655817138218 -10.023761054807204
19 1 8 -7.21729443473458 -7.082086211286031 -10.425974537993458
20 1 8 -8.91768073961903 -6.673700843080862 -10.171675476621347
21 1 8 -9.4551910885459 -6.959734295268739 -8.494979923736874
22 1 8 -8.705509351791976 -8.629149482098205 -7.5323019767297925
23 1 8 -8.548064892201294 -9.745183138267071 -8.250342149887897
24 1 8 -7.471555894691847 -10.005957292694195 -8.893030870344907
25 1 8 -5.7480250480429556 -9.450653198879849 -8.740589279382965
26 1 8 -5.542768133852232 -8.065537888571425 -7.529826745398448
27 1 8 -5.038948701841771 -7.247440752109299 -6.664879939987369
28 1 8 -4.268567748339851 -6.751435540875652 -7.477452244964593
29 1 8 -2.956018152732334 -7.2251745775637275 -9.073223667857368
30 1 8 -3.8710403234181783 -7.810594460765949 -9.757504662701455
31 1 8 -4.636203871060461 -7.16243974161889 -10.722589471079688
32 1 8 -3.9309673484821426 -6.234778600133527 -10.646856961371057
33 1 8 -2.777460418994886 -6.881970895933153 -10.170261805166724
34 1 8 -1.971501804631751 -7.390562877013524 -9.150507199146725
35 1 8 -0.4815650857382132 -8.018879546956398 -10.13178958300438
36 1 8 -0.5223492254213087 -7.30552166352575 -11.915488026494986
37 1 7 -0.33773735906669605 -8.492915228354383 -12.140872433099846
38 1 7 -1.2255679031005748 -6.900553286426292 -11.154053520764998
39 1 7 -2.7207345491445856 -6.552164247544883 -11.486331419241967
40 1 7 -1.8019946383390042 -6.92529782489217 -10.385341382120153
41 1 7 -2.480774780603821 -8.675029345424806 -10.692799233182042
42 1 7 -4.233094372766176 -7.492315757274079 -12.150549129061618
43 1 7 -4.970867022083366 -6.896889545958033 -13.403790992051373
44 1 7 -4.483634196251799 -6.012045029890146 -14.113996459440486
45 1 7 -3.3828204079471886 -4.790634971944372 -14.438742060222324
46 1 7 -2.9464923253487467 -3.4732529406654 -13.60260046795557
47 1 7 -1.4720936562156657 -4.476163484001059 -13.834081609298567
48 1 7 -1.6405415231507192 -3.37796887142822 -12.917566760717401
49 1 7 -1.4914325554217367 -1.8555621182053856 -13.20562488104497
1050 61 10 -1.1773577493415948 -2.6445234842997634 -3.1781798229162845
51 61 5 -0.6187286651015094 -3.4859976184589176 -4.047546262872513
1046 61 5 2.4186874950807757 -2.886526499005054 -2.3995286209314526
53 61 5 0.15096153015492106 -2.701690383651486 -0.6051035865773613
1042 61 8 1.0785923116874416 -3.8424621346265564 0.6330572882835284
55 52 8 1.9500464797535817 -5.258415779025185 0.0830716906862558
56 52 8 2.3589975579392264 -6.445209625675591 0.0055653922812342865
57 52 8 2.0829246786628524 -5.930201328811908 1.539230521207978
58 52 8 1.6369162091764664 -5.264259349123767 2.4311492414382325
59 52 8 0.3392361513239496 -5.948907587201638 3.6422493367417883
60 52 8 -0.33051132308180264 -5.099647770927378 3.1771606843732063
61 52 8 -0.4134391328981399 -4.286735332528803 3.8477151680152044
62 52 8 0.8346840077673109 -4.006590837671476 4.534670891477244
1007 61 4 -1.1352035421913123 -3.104970658479648 6.222108872413414
64 27 8 1.8596277274056463 -4.594366908735603 1.320901783845403
65 27 8 0.7150629057955634 -4.605645645258316 2.549717564282606
66 27 8 -1.4564939657620573 -5.471436876581681 2.768981466237457
67 27 8 -1.8780655526051886 -4.768165303850973 3.7833933523471406
68 27 8 -2.908619093420481 -3.7767372355488997 4.081312077007736
69 27 8 -0.9260178004792294 -3.561669232900378 4.829210076685766
70 27 8 0.02203108888995264 -2.729756872293104 4.48209406166455
1036 61 4 -1.288277335389746 -3.0722534148302545 3.878936871615078
72 61 5 -0.9499165233863271 -0.6625989173994938 4.2302987687234115
1009 61 8 -2.481244350687708 -0.983306313682423 4.080836937912275
74 54 8 -1.7256345534374986 -1.0351309365715287 0.6971723499829392
75 54 8 -2.305978322207122 -0.40354759303912285 1.4558859998722244
76 54 8 -3.485792529328064 -0.3519464736960379 2.116539014830349
77 54 8 -3.0381771119371277 -0.18228898838686666 3.230273753396183
78 54 8 -4.335485892614674 -0.12580845207260116 2.676423935200801
1037 61 4 -6.135438383887475 1.940609240338632 4.7510165153541175
1017 61 5 -4.391891384345565 1.9249106855108675 4.406814059955456
81 57 8 -4.197275477622196 2.4774268856087667 3.1647987763036185
82 57 8 -3.280965734215676 3.3200025929277293 2.9235387875784524
83 57 8 -1.8815731432221976 2.2637055781915674 2.066037506426794
84 57 8 -0.9040925688946172 1.923574265512511 1.8813234426468382
85 57 8 -0.5274548547320465 0.9352128197849783 2.380594005915043
86 57 7 0.33757312937011774 1.2344550155725198 3.1912818358654427
87 57 7 0.9451360861101555 -0.3175877643759359 4.590509096620274
88 57 7 1.507055944849571 -0.6816773740784493 2.58455889431812
89 57 7 0.8630963479013992 -1.3061451249211045 2.153910177395511
90 57 7 2.3300593319148772 -1.8956333564675554 0.7375122802419432
91 57 7 1.1546112737523508 -1.324670682695822 0.08416786726495938
92 57 7 0.5919813556433139 -0.7849172398163847 0.8557794709221099
1044 61 7 -0.5407180808505885 0.554014813430706 0.2592495682682238
94 56 7 -1.7784409238776895 0.9463036665215315 -0.23961772231177164
95 56 7 -0.8537334782744292 -0.3130479649312732 -1.3484563739888926
96 56 7 -2.139378948204345 -0.9955700445968289 -1.1304422009784496
97 56 7 -1.312603466456465 -1.627301874726494 -0.44411717564766423
98 56 7 -0.619024622418841 -1.8083894250823285 -1.1029086438124258
99 3 8 0.7314610988297635 -9.772644107539177 0.34690463820352324
100 3 8 0.28566475990503687 -8.268474208998512 0.16646844649797335
101 3 8 -0.9826276360345763 -7.38557104215796 0.894805827380774
102 3 8 -1.0463027075414582 -6.52832578948669 1.8559340386288343
103 3 8 -1.2553400054292658 -6.204083230313037 0.807062506311624
104 3 8 -1.940676404109034 -6.124158150926712 -0.3201569352193882
105 3 8 -2.6412341594318076 -7.448846582449484 0.06652190965122827
106 3 8 -2.422246957447274 -8.330420311575597 -1.8432928576162806
107 3 8 -3.1734724056038943 -7.040903646820792 -2.0258813085760727
108 3 8 -3.922044706352926 -8.374885273846083 -2.9957370463192525
109 3 8 -4.574841923958498 -8.807323990273082 -1.6808304569545562
110 3 8 -5.186686195240376 -8.174017229403862 -1.083408540799262
111 3 8 -4.498689568531994 -9.617452831964082 0.22905399765215878
112 3 8 -5.667759834240819 -8.700656774385541 0.6309732802252592
113 3 8 -6.280157352710225 -9.77506203164414 1.1570995206820816
1024 61 5 -4.270583512128033 -12.944767486535726 -0.12670217499506037
115 42 8 -6.591146440213971 -12.065188781589347 2.607505606481179
116 42 8 -6.456692982941033 -11.31230704575082 1.0514895026874018
117 42 8 -5.52490238890197 -9.89716410200438 1.8258756754106304
118 42 8 -4.710752221327178 -8.195596206514933 1.7353832274189733
119 42 8 -5.644366825134646 -7.728759018200964 2.5603666002008727
120 42 8 -6.454302660522225 -8.582476858270164 3.1354168623795187
121 42 8 -5.377741873025299 -8.257049732178162 3.770028328934025
122 42 8 -4.322669856522594 -7.427308449474254 4.2656768738827155
123 42 8 -3.8713963461770238 -8.867027490691417 4.0949973256914864
124 42 8 -2.9581891471812263 -9.465833066385926 4.38429600847999
125 42 8 -3.4795730010379726 -9.658197389713694 3.383206085518
126 42 8 -2.932282058882226 -8.404246338088226 3.569815319690474
127 42 8 -2.3315656600706633 -9.513415997856766 3.1725589786900197
128 42 8 -2.590704179241267 -10.820953190930563 3.1370669125684936
129 42 8 -3.0082264204528077 -12.742736412647352 3.355635080791417
130 42 8 -4.315905922120373 -11.966081544761265 3.7556193795879733
131 42 8 -5.84527574302869 -13.061573809465159 3.2734490579635023
132 42 8 -7.483811610584516 -12.787084919589324 4.347687263899945
133 42 8 -7.819791802132198 -13.04409175808678 3.249054029282282
134 42 8 -8.781196082321514 -13.455651778599094 2.709908300673972
1025 61 5 -4.854013423720538 -14.110659898527915 -3.638930967914109
136 40 7 -7.006351136906419 -16.214371344639243 0.9207962693166868
137 40 7 -7.349494371306217 -16.074701649200964 -0.10739475825871063
138 40 7 -5.189211917806887 -17.422477484451257 1.1159491784624989
139 40 7 -5.687027369400433 -17.277901327247648 0.08927115845189747
140 40 7 -4.676420228951665 -16.176873723369503 0.8935540646969297
141 40 7 -3.219397217794663 -16.163991187048723 0.24678680642256448
142 40 7 -2.530654260802378 -15.087700929977885 0.382332352480073
143 40 7 -1.2870932968023499 -15.099214765785856 1.858156450088874
144 40 7 -3.1967080028235983 -15.426780395412635 2.7005399208429837
145 40 7 -3.6235994935747002 -14.149004910807204 2.826066173877983
146 40 7 -4.462087104868211 -13.695932192924364 4.203779610505892
147 40 7 -5.768343286336056 -13.223087976767426 4.374784164155526
148 4 8 -1.0275338804140013 10.99123350678054 16.5795247223087
149 4 8 -0.9630573192124282 10.878001514214732 17.684544746578705
150 4 8 -1.498775056333635 11.258349239471466 19.228863634415546
151 4 8 -0.9042309400113185 10.492647065753529 18.79389407120322
152 4 8 0.31664298314390943 9.909169026720464 17.991540787123455
153 4 8 0.2275712774959967 9.821207844643242 16.95562863405488
154 4 8 -0.4726252711748492 8.934394018231856 17.445624027812627
155 4 8 -2.2707392520752885 10.060669112060248 18.71399678384237
156 4 8 -3.6811343431506676 8.99140648478474 18.588000687016244
157 4 8 -3.436206845876739 8.038021540120026 18.32075727614545
158 4 8 -2.6881362716909774 7.142054856818388 17.611220713777055
159 4 8 -1.015598903949931 6.882650570163843 18.235030441015276
160 4 8 -1.289909385027572 5.683169201505999 19.358316650715004
161 4 8 -1.101395933089255 5.833702002885862 20.587216960457205
162 4 8 -2.124947346154852 5.792566121554071 21.342860269988382
163 4 8 -2.2247862106517946 5.311794274956916 22.50470509357454
164 4 8 -3.624853273829084 4.951489706735695 20.809232992936796
165 4 8 -4.989146854206234 6.2186198189458 22.00773746513142
1031 61 10 -5.4694535487288976 7.493456943163903 21.66482729214874
167 4 8 -4.423801514537551 8.471137495039093 22.11573357031468
1043 61 10 -4.9097881835449035 7.136286642275281 22.686304871080484
169 4 8 -4.030907786084257 6.8004438491336066 23.23357009241808
170 4 8 -4.197154362907611 5.1492867294351825 24.36431137462045
171 4 8 -4.822098416556182 4.375166945735378 23.71145568988489
172 4 8 -4.760202447801107 3.046150909554251 23.64231432169418
173 4 8 -4.913870404280414 1.4390991477066253 23.881456753414785
174 4 8 -4.783749656069797 0.2950583874311703 22.89947267473228
175 4 8 -3.870430225645913 1.1221383970694192 23.580854206941467
176 4 8 -2.5535994796085335 -0.2536973813503583 24.220628036451995
177 4 8 -3.065740383614632 0.4135724006185048 25.47530502619751
178 4 8 -2.4725486089589053 -0.5280391278446159 26.965964029470477
179 4 8 -2.9503202870217886 -1.3255804724566058 27.383752365885588
180 4 8 -4.464573344837893 -1.6639692887318982 27.17006339999537
181 4 8 -3.4831579869337763 -2.3628117287901 28.593731569609435
182 4 8 -2.8680504806221 -1.0505459234106083 29.774985597252282
183 4 8 -1.3565029792768886 -1.0742669352070293 29.69306501182252
184 4 7 -0.06683908355895214 -0.041752927140942406 27.736640370692363
1028 61 9 0.6156385078692868 -0.4939510181882939 26.552780064238117
1023 61 9 2.0320065649731363 -0.499211946231354 26.663844894106592
187 4 7 1.9229387024107272 -1.9174829277602596 26.438039069007733
188 4 7 -0.057133956350500954 -1.432019773846479 26.575116936133842
189 4 7 -0.36091154469427317 -2.731670395192853 25.063516395792306
190 4 7 -1.6800054716220763 -1.9410905486044887 24.814701710442073
191 4 7 -2.3416803560851007 -3.1465003270337593 23.94917454611895
192 4 7 -2.0277242221110874 -4.5861107184977 23.68972395396266
193 4 7 -2.159534958630982 -5.181482022220963 22.406475612648112
194 4 7 -2.6909036979212835 -6.977082792287385 22.643943941516664
195 4 7 -2.3325269627229432 -7.520149734319228 23.678233300468474
196 4 7 -1.2816647831368226 -7.487778879609387 22.535754847167784
197 5 8 1.2270423758851499 -2.6336366245874347 12.383919974467
198 5 8 1.4040204276133725 -4.140748544002141 12.55461230938004
199 5 8 0.41607760772047103 -4.419870299144632 11.499339738451077
200 5 8 0.31583053465376115 -4.204649800434215 13.166563649361402
201 5 8 1.0798472837520052 -3.5063107816552006 14.074062451508816
202 5 8 1.167647567563971 -3.473067503055541 15.221378814567268
203 5 8 2.074763857628119 -2.617210535355589 15.718154679537493
204 5 8 2.743264177753851 -2.710218186027938 16.763867148564838
205 5 8 4.106230050025448 -3.5814871101107606 17.230881602338258
206 5 8 5.287769116599827 -2.06673091098897 17.12911421539715
207 5 8 5.95703888702338 -2.3891190916015095 17.995157573699053
1056 61 10 5.690605651641772 -3.3411765329668723 17.448983535214353
209 5 8 5.823556272906359 -2.154221669761986 16.11250257449756
210 5 8 5.997110076567524 -2.224322231531108 14.805251508804494
211 5 8 4.977626934773773 -1.2567873950325092 14.595415977999512
212 5 8 5.647933369789596 -1.8592905135112832 13.483845963973902
213 5 8 5.096638281201959 -2.112730365943794 12.339134029283153
214 5 8 5.445203110308923 -0.13233937954491787 12.791003080755734
215 5 8 6.758985005909332 -0.17397198647521658 13.082155856728981
1019 61 8 6.7160135650302974 1.3457807573487044 11.44275833826078
217 30 8 5.18202045238269 1.2831926436962207 11.380162323242459
218 30 8 6.7097438631570645 1.667227290688221 10.096738787811617
219 30 8 7.608427954273345 1.39435774396756 9.186326068173381
220 30 8 8.657421896046012 -0.41919691314366353 8.298165384183934
221 30 8 8.416330030231865 -1.4466877485493745 8.487244932657797
222 30 8 6.491033673287596 -1.5145516835472421 7.916002407626717
223 30 8 6.840098659153174 -0.6992489483174918 9.084502750016258
224 30 8 7.3695709736803545 -0.26534923561551227 8.098286953395686
225 30 8 6.612458847290024 0.5557185036433657 6.552058956633931
226 30 8 6.086888309351572 1.2295829715374267 5.1072104194316585
227 30 8 5.499045446311414 0.414029252874753 3.7481275804926937
228 30 8 6.376627649984875 1.069719544139612 4.1199719490001465
229 30 8 7.22368614656392 1.8398777353411535 5.061894000608747
1054 61 10 8.803219531119908 1.152382664957268 5.56904778557061
231 30 8 9.363035265794483 0.32409314224475666 5.013457260003356
232 30 8 8.266252893176741 -1.4464126355782905 4.959655612920707
233 30 7 9.47307779933094 -2.233472584207663 3.931485139443257
234 30 7 9.133465947158612 -2.3236957104063336 2.990980420558308
235 30 7 10.04245511279045 -3.8317974638774537 0.9642405147385432
236 30 7 8.074620755251424 -3.484913883847511 -0.3358322923436194
237 30 7 7.701119877528208 -4.526309556440654 -0.4850201594707495
238 30 7 6.748764090342538 -4.939976213685107 0.9273902091651959
239 30 7 6.529968248078441 -4.859290741394986 2.1786923052318685
240 30 7 5.960204605876757 -3.4504252033313234 1.5413586699220696
241 30 7 5.779313198492431 -2.3112627788938327 2.5956387209813876
242 30 7 6.135052897214206 -1.2039539008394098 2.7600558269735758
243 30 7 7.2673750978382206 -2.1009100477088394 3.3793926245109422
244 30 7 7.480781604079267 -0.7830979053096091 4.016975146633367
245 30 7 7.148226844993062 -1.53507569120164 4.798020651772839
246 6 8 -1.0194600188673706 2.259774158852417 3.7425405917298518
1052 61 10 -0.8245913528707017 1.1968155030617174 4.3050043187605285
248 6 8 -2.7118264305786566 0.962483507337217 4.756591644815244
249 6 8 -3.732469070453578 2.352693073940552 5.3929518457323615
250 6 8 -3.472916247611245 3.6401658776750017 5.2428315634124445
251 6 8 -2.3068442448833935 3.6875892773080943 4.026725483995299
252 6 8 -1.1817558617793218 3.575156557585131 3.2827053091203453
253 6 8 -0.6361940443418355 3.3853593274234757 4.450313852973045
254 6 8 -1.6868684319436167 3.3962477889221665 5.142645099021453
255 6 8 -3.027433822222871 2.7588601095378023 6.0391624261854595
256 6 8 -3.571623533695256 3.6572236678585126 6.7747767910555465
257 6 8 -3.151686621514868 4.498060132908663 6.423663379012835
258 6 8 -3.193177565174927 5.73622901525195 7.205170963492804
259 6 8 -4.417703095710604 6.22921476934702 7.48835808727878
260 6 8 -4.994382931493129 5.593665520988986 8.7213683298557
261 6 8 -3.7120373352070724 5.9873013367765395 9.576933550285457
262 6 8 -3.299815018489671 4.872676473935048 9.323216049968998
263 6 8 -3.5392997071381527 4.513279790142438 10.931454897539748
264 6 8 -4.4785372950574285 3.8345148984810207 10.15609407586306
265 6 8 -3.6507338023972853 3.5138632989864753 11.400292534021867
266 6 8 -2.547045091598957 3.2935260291239428 10.545759123838232
267 6 8 -2.355392483855332 2.1134541140362524 10.4066841450924
268 6 8 -3.338591915190225 1.4021509002954218 10.94909122584004
1034 61 4 -5.125122704087995 -1.0810906151295352 10.182993913060601
270 45 8 -3.3741287886981106 -0.6145693819281948 13.19709408513269
271 45 8 -3.6493182659514947 -1.0526511293879972 15.075149155541148
272 45 8 -4.195377008089464 -2.433417348398121 14.827763949103433
273 45 8 -2.6968949329424445 -2.978274756998711 13.787719073784707
274 45 8 -3.3438438515990248 -4.212250578397996 13.453260228035369
275 45 8 -3.68247029522944 -4.948085455768374 12.071410555590015
276 45 8 -5.42752926599917 -4.6760522355995455 10.64542116865098
1047 61 5 -4.004190021979089 -2.3983511637772654 8.878253595752108
1012 61 8 -2.471763775748492 -1.2171308362524464 5.921095801339682
1026 61 4 -5.536716259488372 -2.6561423081918543 9.300457473032646
280 48 8 -7.090376528313276 -2.761647793312141 7.45079045886013
281 48 8 -5.8343818984966695 -2.946018909729957 7.6375696635095744
282 48 7 -5.142627347114137 -3.0334725346506417 6.710333832189895
283 48 7 -3.999126017323943 -3.6106802854669335 7.293716762605515
284 48 7 -4.078301087669272 -3.4608472179803034 5.980380596611886
285 48 7 -6.4104639896043825 -3.8019098494266563 5.723282278454251
286 48 7 -7.213284243996352 -4.012405265167079 6.826642889770794
287 48 7 -7.060942928930479 -5.483670357621802 6.851365781131105
288 48 7 -6.707724269815563 -4.696217568195595 4.9521969668246015
289 48 7 -7.55055792760101 -5.779787489504267 4.733068818335655
290 48 7 -9.769888048152428 -6.017071312012822 3.974012439613289
291 48 7 -8.799425229744061 -6.520577804788014 5.459625718223626
292 48 7 -10.13379992041569 -5.670150566317513 4.907922589355091
293 48 7 -9.328223107182135 -4.151633547376019 4.817495928133911
294 48 7 -8.693214652475604 -2.8794547705622726 4.213798894470796
295 7 8 2.780229484530146 15.042414017095739 9.10652554037027
296 7 8 2.8829442904199367 12.767777319320114 8.21599867735037
297 7 8 3.60828772879208 12.620930746140209 9.022265671162087
298 7 8 1.8510301490839078 12.537140954780988 9.366645705959602
299 7 8 0.8829463588956905 12.669931718739406 8.087658247372005
300 7 8 1.7028977084858286 14.552327370470039 7.645799652909995
301 7 8 0.9135570241384853 15.135790248118935 9.245699876625034
302 7 8 2.6472429118058685 14.254643499000158 10.082175717808557
303 7 8 1.3185674394140021 13.918965609281985 9.619724140721623
304 7 8 1.9206487414006692 13.129813931963914 10.303909764299904
305 7 8 1.2967437939853597 11.623264806921087 9.881229734125798
306 7 8 0.5038641773278445 10.413747487431822 9.88159187106721
307 7 8 1.5102413864522202 11.954581714927116 11.066996572147973
308 7 8 1.6798921312706012 10.85348616685685 11.145291143769212
309 7 8 3.236556059196643 10.928302224691818 10.99356482655047
310 7 8 4.345940371970675 10.94117097207224 10.455660107090218
311 7 8 4.277793109048306 12.16369394961885 10.242741362104672
1011 61 5 5.046268706697592 8.870562759986415 8.449930617638122
313 43 8 2.973236750361785 10.250665841137456 7.8116718738311395
314 43 8 2.8482756986828845 8.209736946553061 8.228773994369236
315 43 8 2.613853991648101 8.655519371960853 9.615524396746252
316 43 8 3.472385544210211 6.680507987528176 9.43447039337169
317 43 8 1.7994331901844285 5.977910817327244 9.596907019734324
318 43 8 2.795892618949421 4.666403468003336 8.87187358939004
319 43 8 2.5895928234396064 3.3606407731293975 8.232235083655272
320 43 8 2.8909666983771465 3.662734118596451 6.680638157625784
321 43 8 2.9370864372873453 2.7755428311385795 4.7908538357997505
322 43 8 2.0594403597972555 1.1457147976915143 5.4191772558333025
323 43 8 1.0995838754668346 2.3205476953433397 6.363170422445881
324 43 8 0.32522576688229693 3.43250095491682 6.606722359704104
325 43 8 -0.7121081443582342 4.402087099134346 6.254789860375856
326 43 8 -0.26186734344691015 5.327428522405821 7.108982658660748
327 43 8 -0.6596768343166366 4.936117574281369 8.397883651078832
328 43 8 -1.497998826139396 3.1434125084016022 9.272647026360936
329 43 8 -1.485504314383748 2.9023693654004643 7.694389187066784
330 43 8 -2.1277143277177464 3.4293095192580205 8.384015905251681
331 43 7 -0.36969315883064285 3.0000340680483073 8.35576326402979
332 43 7 -0.6086627367662807 2.724089406364435 9.613578869914218
333 43 7 -0.20273753520336052 1.2639084590223044 10.266652636284672
334 43 7 0.0695533907339465 1.6247389768125218 11.285680612785438
335 43 7 -0.16433230557307368 3.282824896443179 12.206791631159465
336 43 7 1.3082139422558616 4.000599931381434 11.906486905963375
337 43 7 1.4218998400444658 2.5296889433535714 12.101117553226283
338 43 7 1.4172011666118725 3.430222089631441 13.430208255545516
339 43 7 1.194528048589714 5.383956039646046 13.835597802272373
340 43 7 -0.017778394014600726 5.246744678064454 14.219802438343846
341 43 7 1.0803146533076577 5.927333366124962 15.645664612761149
342 43 7 2.1904691013700037 5.969689265859334 17.051777474519145
343 43 7 1.8612564254067716 5.643158648837382 18.124696223409064
344 8 8 6.670714180651389 19.588960190978316 -8.533815603563095
345 8 8 6.363217026842428 17.903781963509427 -9.324453880940451
346 8 8 5.903672593083599 17.439032681015046 -8.064197618696184
347 8 8 5.900426746457146 16.043407554144785 -8.544955820690864
348 8 8 6.608152617081073 16.209625540047803 -7.5404793497133795
349 8 8 6.911763160195763 15.168220207122157 -8.571367417149494
350 8 8 8.238967354963505 16.13611765117411 -9.09523361099385
351 8 8 6.963593218718914 16.10049268737705 -10.196671120741328
352 8 8 5.606240538980886 16.615943245245223 -11.54064721045656
353 8 8 6.998782738007538 15.195781597022501 -11.074905493957994
354 8 8 8.079545782594211 15.301109153730533 -10.786112138479526
355 8 8 8.723330745331749 14.330868723190326 -11.001697853333066
356 8 8 8.77963536238929 13.38163812984779 -10.602872067545068
357 8 8 9.866274329935633 12.693612564550056 -11.736805026690382
358 8 8 9.216027087467804 11.921446547825747 -10.870534358528552
359 8 8 8.313038045899074 10.248727887102268 -10.958871959709885
1057 61 10 9.148758110033317 9.030002723372773 -11.756315316499547
1048 61 10 10.44744446691441 8.281872669782311 -12.687283900120692
362 8 8 11.57947582679313 8.550223636588825 -13.007871221534156
1051 61 10 11.243564499814376 6.717668528263135 -11.939891191732166
364 8 8 11.714712784202826 5.682842044997419 -12.234932702397153
365 8 8 10.69569795929093 5.812651204941804 -11.623829589979602
366 8 8 9.971308467129372 4.386209499546127 -11.692987753202605
367 8 8 9.378172691138507 3.9223173051226436 -12.717303828534103
368 8 8 8.450454781013907 2.8835857926583706 -13.004786797348258
369 8 8 8.432002556844994 2.9289675656054057 -14.44669734209786
370 8 8 7.878179739412611 3.8060359936925336 -15.156839804907266
1038 61 8 9.815863592656275 5.583965587623432 -15.151213411661306
1035 61 5 12.768231537933396 6.353824785998933 -17.82970561136653
373 41 8 13.828118562258464 6.681063578886999 -15.361497729767347
374 41 8 13.156633428082262 5.390744278919632 -16.152215230587313
375 41 8 12.636683458205201 5.238542301331158 -17.573091201322026
376 41 8 11.384604906316616 4.712180865289522 -17.642852902094937
377 41 8 10.5452847684402 3.27947835625093 -18.46024269295712
378 41 8 11.914879975251726 1.7118108183661183 -17.831531414438107
379 41 8 13.766363569597587 1.22879630333339 -18.390151259929503
380 41 7 12.496188202098542 0.3955584321543373 -18.124332810198112
381 41 7 14.286223441069607 -0.049498370424699914 -18.302544975143096
382 41 7 13.435861454285433 0.3446573393668672 -19.517663444489987
383 41 7 14.830670934615286 -0.6246932294072071 -20.07441155729589
384 41 7 13.61569807763801 -2.166846344929124 -20.841756392140763
385 41 7 14.573239020630227 -0.7115959747793635 -21.2717545803682
386 41 7 15.025104784773434 -2.0030797326109977 -21.32086079892546
387 41 7 15.745598782597133 -0.7125495022700499 -22.856557674842943
388 41 7 17.34042337047286 -1.189042855457698 -23.355607200792388
389 41 7 17.248030192175378 -3.014346897714725 -23.006288778678044
390 41 7 17.821095837067332 -2.03272470335333 -22.009304238303578
391 41 7 17.763659218575867 0.33162465720173395 -21.98754557903211
392 41 7 18.18284462396564 1.1345130201097118 -20.552487725284887
393 9 8 -4.708115985895216 -2.8069745391888743 -15.655878083121744
394 9 8 -5.09444118360009 -3.847337263074007 -15.794646906912908
395 9 8 -5.7980484618038055 -4.3632614314453395 -14.846010194854234
396 9 8 -6.544799051508673 -3.0448409954194537 -13.354484840525625
397 9 8 -7.625838404673601 -3.620402850725811 -13.27241722560967
398 9 8 -7.369173152810725 -2.2936738220657644 -13.077499422358821
399 9 8 -8.128346117342472 -3.1464635697173597 -12.484703681953187
400 9 8 -7.014977702450692 -1.8114360112548533 -11.997139323639718
401 9 8 -7.235232161785592 -1.006577218859588 -12.667623214220496
402 9 8 -5.5608267565294645 -0.9535895452671271 -12.736146098106504
403 9 8 -4.58378399117737 -0.29968151476891713 -12.75106637125558
404 9 8 -5.709364767263319 -0.023248293150304408 -14.221477718099683
405 9 8 -5.310786334154305 0.5310967075199009 -12.663235721136099
406 9 8 -6.530878002848243 0.6520993603253449 -10.959594947835248
407 9 8 -6.703256120382169 0.1601593355373252 -9.500289909699365
408 9 8 -7.060220659053893 1.3300217663073521 -8.652619172037403
1010 61 4 -4.751739247690345 0.23927242909496216 -8.752352272210997
1022 61 4 -8.302217035469171 1.3529840998670015 -7.969419380578864
1016 61 4 -5.880830220520957 2.7083787418800034 -7.5292708964805115
1029 61 4 -3.892431514560437 -0.5091419099030285 -5.794295273340448
413 50 8 -4.234659111223941 -2.933231238925671 -7.168794366525044
414 50 8 -6.045085816664212 -2.1424552400789576 -7.387028754802325
415 50 8 -6.042796841978164 -0.5259451535851011 -7.884702121559265
416 50 8 -6.759235302120078 0.48121701860106975 -6.558112676951987
1021 61 5 -6.915584572413809 3.753079652026278 -6.991442211751188
418 32 8 -7.185232860584197 -2.05001814704728 -5.2118394544390245
419 32 8 -7.987125717579624 -0.4152171603137245 -4.988998849326871
420 32 8 -8.556355933445728 -1.9746832850837543 -4.399158526995827
421 32 8 -10.357743765772707 -2.5331965561878165 -4.450343543398017
422 32 8 -10.622446104253726 -1.784697504178137 -5.0821683332753755
423 32 8 -10.977753510212308 -1.4367150009588276 -6.250313551366739
424 32 8 -11.345618366973316 -3.0419190559654496 -6.688621559653943
425 32 8 -10.877170115816469 -4.372299025248407 -7.4903994149382
426 32 8 -11.507668100067615 -3.8742574077363248 -8.37760084722543
427 32 8 -10.911100206969987 -5.150749088034743 -9.315102748366847
428 32 8 -12.316991858091228 -5.911224011083793 -9.022606473797628
429 32 7 -12.828823657311741 -4.858642394748564 -8.868163805971133
430 32 7 -13.334499295497508 -3.7826787524807286 -8.022111130554354
431 32 7 -14.077443561660816 -4.989356541371683 -7.502965625306167
432 32 7 -13.100361887468846 -5.567191452962646 -6.835580483269356
433 32 7 -13.722872915156417 -6.326500090005929 -5.851831432938393
434 32 7 -12.574514230914357 -7.5489380400479975 -6.80377160755304
435 32 7 -13.532668825089011 -7.510798255902648 -7.820102341803849
436 32 7 -14.319776175937081 -7.138462410682117 -8.541935688754647
437 32 7 -14.835556512874344 -8.902740083866734 -7.923412634826075
438 32 7 -14.312309229996853 -8.683244864732576 -6.46752011673065
439 32 7 -15.492326005925316 -7.1846869397944255 -6.705198214611325
440 32 7 -15.906064536581496 -7.015866375754354 -5.216732251929473
441 32 7 -15.440435843133509 -8.457558873506272 -6.191414179568243
442 10 8 -1.76097002933498 14.590994171646987 -0.28710048319552645
443 10 8 -1.195251920061773 16.490276169513546 -0.20803084142264094
444 10 8 -1.4258882995275979 16.94115512005367 0.8245665210628735
445 10 8 -2.162351791468661 16.345400943086823 1.1596091242275677
446 10 8 -2.812031175971951 15.607087600115163 -0.7195845706512034
447 10 8 -2.5061424941593367 14.069047739464011 0.2759464009601059
448 10 8 -3.15011456494817 14.183968697238173 -0.8142457066394702
449 10 8 -3.957792708368519 13.19972991048632 -1.1581166726902283
450 10 8 -2.3691607755812534 12.825183867972559 -0.963862091603787
451 10 8 -1.8527607157148107 14.132380194008443 -1.769553725351569
452 10 8 -1.224092408412374 12.411204998342777 -1.7285287141270038
453 10 8 -1.757082469801955 10.9796589840725 -1.1347524801596873
454 10 8 -3.0477093865336014 11.078207356170305 -0.8984960772740735