# Generated from readdy-to-lammps

1005 atoms
654 bonds

10 atom types
1 bond types

-30.0 30.0 xlo xhi
-30.0 30.0 ylo yhi
-30.0 30.0 zlo zhi

Masses

1 1.0
2 1.0
3 1.0
4 1.0
5 1.0
6 1.0
7 1.0
8 1.0
9 1.0
10 1.0

Atoms

1 1 8 -15.500455710756578 -8.653973338149346 -12.236018191812278
2 1 8 -15.016699311300638 -9.345714163458844 -12.875101684043926
3 1 8 -13.644058031933481 -9.96359303027913 -11.710388478720475
4 1 8 -12.942596737786255 -10.022445354594714 -13.151562531758586
5 1 8 -11.95575405884731 -8.439103979457641 -14.234642244072052
6 1 8 -11.022552732836726 -7.2257338342171815 -14.736955298553248
7 1 8 -11.85575048430987 -5.984423917533427 -14.495100883524799
8 1 8 -12.558397329067674 -6.189559360420266 -12.20536969289812
9 1 8 -11.603630579875427 -6.202891565454608 -11.738032487741718
10 1 8 -11.137729682433001 -5.515079323013793 -12.772246648253462
11 1 8 -10.5350928865892 -4.60674290890468 -13.459339860142258
12 1 8 -10.499099208213563 -4.204462765820418 -11.756946275849364
13 1 8 -9.500992652818383 -5.013798345556493 -11.68322291526018
14 1 8 -8.271958199093126 -5.1198693203324 -12.58983424516363
15 1 8 -7.600702864378875 -7.107182646043177 -12.880866004704068
16 1 8 -6.572232957487937 -6.353412531636094 -12.031834204883944
17 1 8 -7.257485549281032 -6.871729002287693 -10.219552297378959
18 1 8 -6.326048785687168 -7.587145162006234 -9.712505955382234
19 1 8 -7.185570756774978 -8.167812059758253 -10.020590297002931
20 1 8 -8.601154074163192 -7.804807543335045 -9.599609620690211
21 1 8 -8.711468256785341 -7.358582786345137 -8.171107844201181
22 1 8 -8.100695412495657 -8.401270727699853 -7.366700028443977
23 1 8 -9.015991576757463 -9.734949496430781 -8.225795241586384
24 1 8 -8.050789272693834 -9.652557905976906 -7.705609301697776
25 1 8 -6.71174759752593 -9.678749924089022 -8.322456009434774
26 1 8 -5.488444479376052 -9.669726388017397 -8.532662123176666
27 1 8 -4.364620879719124 -9.46582266980116 -7.907237525831263
28 1 8 -4.339762682880224 -7.754057694133236 -7.265642202892949
29 1 8 -4.4967396020158565 -6.012972276015158 -9.17545601897835
30 1 8 -3.3253396173744583 -7.21460601459101 -9.622881948549919
31 1 8 -5.153771657292407 -8.031144874914553 -10.553338257660773
32 1 8 -3.0021650373744553 -7.544401136300803 -10.663043936844987
33 1 8 -2.3731537930322095 -6.3187303818062155 -10.816863350741574
34 1 8 -2.145169449456405 -7.478979914270515 -9.889764141506015
35 1 8 -1.255888315243801 -8.515695521491965 -11.516612813305601
36 1 8 -0.35999514775613584 -9.431985487209076 -12.622583859926143
37 1 7 0.483101219982237 -8.432171839252806 -12.011919992905431
38 1 7 -0.23932799368813878 -7.583860707461505 -11.223477035259712
39 1 7 -1.1507754795116782 -8.051168912588068 -10.234858769803731
40 1 7 -2.4901561705840045 -8.384423382632386 -11.45681307440691
41 1 7 -3.5470840977648135 -8.629205106081063 -12.205688606857285
42 1 7 -3.9729984186334844 -6.151048421358201 -12.651773954437767
43 1 7 -4.4884040116459625 -6.451996328894759 -13.793607104117902
44 1 7 -5.254789172694417 -5.620042166298621 -13.560181025735645
45 1 7 -4.645059024669968 -4.7597857590194215 -14.191625480021617
46 1 7 -3.5937127376394242 -4.52528392485279 -13.145095761765601
47 1 7 -2.5058732981777454 -3.8336445925372944 -14.270038505147136
48 1 7 -1.4024432610331914 -3.0271297163576016 -13.507087595993458
49 1 7 -0.6957848873092687 -3.0132815980190344 -11.872678971751837
1050 62 10 -0.8646220618204856 -2.3965510195151105 -0.8231935642114875
51 62 5 0.6874717457662152 -3.6834085314766654 -3.7014291109405835
1046 62 5 4.011003420336624 -4.1099658255740446 -2.3621668730274723
53 62 5 -0.43276886568619716 -3.51810467405967 -2.3380321883884476
1042 62 5 0.8514985698654634 -4.668471239416078 -0.5819035668632383
55 53 8 3.288922950906843 -6.284044086458602 -0.20263445013804157
56 53 8 1.9287075957437403 -6.537268952128779 0.013244748357497223
57 53 8 3.0176954792576294 -6.518385602964565 0.7679473695014868
58 53 8 2.0340658261168985 -6.899673586211999 2.116080072294877
59 53 8 1.0731497839398716 -6.718790560065667 2.6835845176237503
60 53 8 1.4702673633938579 -5.675304325975951 2.630863382521706
61 53 8 0.46495254433206384 -4.74047597783804 3.74162531028191
62 53 8 0.23871161309855873 -4.634483068177296 5.2290284218126075
1007 62 4 -0.8629997344052046 -6.651041238581279 6.047117997326702
64 27 8 0.09557170798509354 -3.134950773037457 2.155870167782517
65 27 8 -0.3869079704376725 -4.482583145423957 2.10171124220649
66 27 8 -1.616490348423773 -4.665976811054678 1.7531945754816427
67 27 8 -2.0664976318368646 -5.361184297144248 3.182507466947293
68 27 8 -2.6762501928943614 -5.545115217187245 4.92067930870372
69 27 8 -2.3584682847675484 -3.923524934440661 4.564697327592181
70 27 8 -0.5471274953502441 -3.900852666429888 5.006415424372435
1036 62 4 -0.256253458392617 -4.089400842695799 3.460573398689372
72 62 5 -0.4937454989272612 -2.2794747310257812 4.415538786155549
1009 62 8 -1.722760700148856 -0.36483342640789196 5.6401294721744755
74 55 8 -2.137381290395345 -0.275835658336345 0.6484756390071326
75 55 8 -2.5058145243155896 -0.7180585050374619 1.660529284403062
76 55 8 -3.6218995773441676 0.5037558575406726 1.001393814810363
77 55 8 -3.0071121345121723 1.122680309672378 2.1873315142594896
78 55 8 -3.9885002482990433 -0.6978153145777628 1.4922015629026348
1037 62 4 -6.04725816713265 0.9040758097004216 6.055114376231154
1017 62 5 -4.589486242388044 1.4272296172507988 4.050280365491411
81 58 8 -3.5173560844767953 2.5726965496225307 3.012464187839644
82 58 8 -2.124316632387671 3.3735874216110577 3.1060118865098114
83 58 8 -1.2919921317092833 3.48305486381339 1.6171533350994094
84 58 8 -0.2917915577500501 2.8793253666937306 1.4115677533496833
85 58 8 0.5253679383090204 1.1265234086800204 1.6328819104987613
86 58 7 0.6679745055557281 1.1185699510885072 3.0583985120200836
87 58 7 1.6563216020186036 0.40920880316546104 2.980106851069166
88 58 7 1.9946186820482936 -0.7582941908434281 3.4855443419968246
89 58 7 1.973039644341176 0.05199970937837343 1.6390381661072768
90 58 7 2.1025304882866567 -0.9892374567300238 0.5691373009626705
91 58 7 0.45493060238625704 -0.9998262195204337 0.18360956150057633
92 58 7 0.8363430202245867 -1.9499983172130126 0.5242090319674415
1044 62 4 -0.04710507758270192 0.15729948914908068 -0.46169753694358917
94 57 7 -0.22218012895505324 1.3951719458730616 0.0904886424848759
95 57 7 -1.7135292250662257 0.3022847342300612 -1.2683215211040775
96 57 7 -2.5584630785569384 -0.9300670713994725 -1.084080400081456
97 57 7 -1.7648255488799331 -1.299567672951578 -0.33922363428127517
98 57 7 -1.573458876450287 -2.817052380672161 -0.20441751785223672
99 3 8 0.9869777663624434 -9.551985572860412 2.618677208038737
100 3 8 0.9383450009722286 -9.556423166413998 1.1018545098118924
101 3 8 0.31004997705312015 -8.263629337989506 1.157714347770517
102 3 8 -0.5685769994613797 -6.660763715207369 2.1755443432431414
103 3 8 -1.2751416132289288 -7.185895632988282 1.3680729263482583
104 3 8 -1.1051894062555112 -7.4537961177811995 0.09096921312201618
105 3 8 -1.885779955606506 -8.049580333132186 -0.4420948491019317
106 3 8 -2.2915468132180723 -8.132858491959224 -1.5232117725734093
107 3 8 -3.382269270328458 -8.388170299087308 -1.5257230235696606
108 3 8 -3.1612607941345576 -8.81815860111272 -2.727252657129522
109 3 8 -4.944684514088467 -9.014754681893212 -2.135967465552083
110 3 8 -4.041458581244067 -9.159278508713326 -1.2724888441903028
111 3 8 -5.716174508619598 -8.429363475609295 0.06229128328401301
112 3 8 -5.688580995070042 -9.113531554028324 0.9657000321825955
113 3 8 -6.689792402752093 -9.055630229036076 1.5058274590460314
1024 62 5 -4.258035311384462 -12.223056989447363 -0.14964209740497228
115 43 8 -5.136097392797815 -11.067585188153059 1.316967001067867
116 43 8 -6.219087613837153 -11.552234598997389 2.121917109873503
117 43 8 -6.353266150541778 -10.39373583542962 1.2174375770424763
118 43 8 -5.445121764745063 -9.8605417589367 1.9717786255507845
119 43 8 -5.956251871908691 -8.105945882990918 1.7656046124525775
120 43 8 -6.849447248001702 -7.691463105098027 2.180126343722008
121 43 8 -5.9583085595414875 -8.856257922292805 3.0704062938047447
122 43 8 -5.1451067459464666 -7.872306033936048 3.6435449585343376
123 43 8 -4.574967310145201 -8.184928577361353 4.790397763770834
124 43 8 -4.214013597126969 -8.715792384749625 3.680041313742964
125 43 8 -3.9974279890508915 -7.654641592616197 3.2114636724745753
126 43 8 -2.9567898663362886 -8.9588070043403 3.0925510514290324
127 43 8 -3.566513427287012 -10.428362369272843 2.7287884983563844
128 43 8 -3.1217389432113847 -11.424916561695614 3.5188571084527935
129 43 8 -4.597222070193137 -12.516777299701236 4.370303143513934
130 43 8 -5.200429309625496 -12.66360200075433 3.5000625120761653
131 43 8 -6.617703470825154 -13.329616695173543 2.8352355059517333
132 43 8 -7.441544078161455 -12.667605998112704 4.179964279386053
133 43 8 -8.450928119854753 -11.950863498875512 3.007220798699242
134 43 8 -9.027353583854387 -12.507125106056426 1.9025769961311727
1025 62 5 -6.492945128573504 -14.870805986439079 -5.043918808180163
136 40 7 -6.459698132368913 -14.193388727985282 -0.9929696725009721
137 40 7 -6.909373037146932 -15.808754506075068 -0.9526824014627172
138 40 7 -6.236494007778126 -16.594105481385828 0.7240157599943245
139 40 7 -4.447417631397905 -16.891725492934295 0.22789592367725095
140 40 7 -3.2829858071483926 -16.204185724340256 0.43285266466177386
141 40 7 -2.538797345582186 -15.6276031511361 0.5987370961264441
142 40 7 -2.72823243178832 -15.463478261375556 2.0061985939010327
143 40 7 -1.8357058372284232 -14.309714772928253 1.763061510039436
144 40 7 -2.545237717796414 -13.263517708452909 1.4767359826390007
145 40 7 -3.111851524108114 -13.68312220887606 2.486548532547366
146 40 7 -4.935311346943322 -13.107589662520981 2.538165067690101
147 40 7 -5.74150059313004 -11.670966260915103 3.547619140215886
148 4 8 -1.6157571564013204 12.507333720250452 18.689910560007537
149 4 8 -1.670500059464097 10.295430911138906 17.986208837971418
150 4 8 -1.1192635738573598 11.290090620182104 19.11015480362863
151 4 8 0.27689784211308655 11.390388523176446 19.637450809937825
152 4 8 0.8673514233500792 9.691143660734104 18.63864958156001
153 4 8 -0.3474874567723849 9.32109212020657 18.233395190719076
154 4 8 -1.1535635325480542 8.449483152791089 18.873091254502775
155 4 8 -2.4848660778578915 9.427109629005823 17.595065061725837
156 4 8 -3.2404600296700306 8.370506451352012 18.13723493036474
157 4 8 -3.889746023819133 7.542130056477618 18.85267394086694
158 4 8 -3.47876877274904 6.623483550466013 17.89117041686083
159 4 8 -2.0616922632489256 7.249002702110728 19.43355388556858
160 4 8 -2.1954790617214557 6.352353811808104 18.251517565053792
161 4 8 -2.251734762875119 5.585282165234124 19.30117299460963
162 4 8 -2.237138182631617 5.629037111040079 20.91070765162203
163 4 8 -3.193822828778979 4.624134243994823 20.356590704802358
164 4 8 -4.198749157272839 4.254359678254582 20.796383900983887
165 4 8 -4.072296473383099 6.024862848212135 20.658510799318975
1031 62 10 -4.506341464797115 7.093834936422959 21.33348554152885
167 4 8 -2.85915089488593 7.460874448401339 22.005302937178467
1043 62 10 -3.9646585332427984 7.183485264489736 23.88899807055613
169 4 8 -4.696043211125021 5.8803625022486115 23.078566637853267
170 4 8 -4.21417929405185 4.919021138790828 22.349814708358924
171 4 8 -5.359944231417782 4.452594623820804 23.70592551660984
172 4 8 -4.9401048100147875 3.520332378351358 24.350566962103674
173 4 8 -4.874035866757964 1.6079308519066517 24.974496507172024
174 4 8 -4.019608550580856 0.4460668256375546 24.870979454093582
175 4 8 -2.7174470607339214 0.6336852562118884 25.547399172431415
176 4 8 -2.9695400134583467 -0.684154888005641 24.43184992945545
177 4 8 -3.067812190868401 -1.4970872821233012 25.659001374138477
178 4 8 -3.1467050053914756 -0.8715585105003083 26.746862126284928
179 4 8 -2.713395897514416 -2.133102244519173 27.026542168881697
180 4 8 -3.579975480316523 -2.1636951381969056 27.67887519241721
181 4 8 -2.294221419243698 -2.7272169266849247 27.95231803785079
182 4 8 -2.4904558441586584 -1.8985452290000606 28.87074062925754
183 4 8 -1.5787031572685608 -1.7391208288508393 29.55279219549853
184 4 7 0.07972401227567925 -1.5260281117096675 28.40710512348081
1028 62 9 1.5369231555693408 -1.436192429271078 28.150771950483765
1023 62 9 2.4145216871972117 -0.46448031855600297 27.421511987824392
187 4 7 1.5689331618970168 -0.8876072571169143 25.58246089519885
188 4 7 0.3614925336072365 -2.021437735451049 25.259197154494473
189 4 7 -0.5299632444665829 -1.61862181421566 23.822073961803927
190 4 7 -2.5408335931122608 -1.7290408419842331 24.800811257286256
191 4 7 -3.0901338522659767 -3.8803323811098522 24.484412685855165
192 4 7 -3.0866828725195607 -5.261788186449415 24.61274541741897
193 4 7 -2.7581432322641417 -5.313637918313319 23.45081138761059
194 4 7 -3.09498472327161 -6.253459365945567 22.68955112235523
195 4 7 -2.9669795490197504 -7.179694252663842 23.510298883121408
196 4 7 -1.1231021305343474 -6.874324384750312 23.00806719338157
197 5 8 2.492436959960375 -3.5831520408772177 12.774706916908139
198 5 8 2.6428569172997363 -4.435823145202356 11.907122863303448
199 5 8 0.509778713363582 -5.059034526594643 12.332188717794534
200 5 8 1.173698493511282 -4.202158461164581 13.021455872368929
201 5 8 0.2610667637747021 -3.765510544599312 14.720402895096225
202 5 8 0.8724504365521107 -2.7190737698072653 14.747427680170107
203 5 8 2.3113285632117218 -2.5280775081130087 16.018390473379824
204 5 8 1.9326394545056473 -3.2913144234927234 16.97811282387072
205 5 8 3.223739337644325 -2.615113684060404 18.0441471895645
206 5 8 3.3537750396905848 -1.715982967028259 16.98841421033102
207 5 8 4.842132553150103 -2.333466070753065 17.204245404927676
1056 62 10 5.8004963397390785 -3.7863351475963065 17.050685691546306
209 5 8 5.865671080891191 -3.202355137795781 15.554513726141796
210 5 8 5.009577887602007 -3.9378964640126104 14.824620878696104
211 5 8 5.46439054972749 -2.5720137219322825 14.581287149822517
212 5 8 5.518741827758208 -2.055630801532178 13.167843987504078
213 5 8 6.441167248835803 -2.538120415077398 13.331808364919729
214 5 8 6.625326097676057 -1.9477088786685557 14.732269044335952
215 5 8 6.711360315639261 -0.5000417831121319 14.47097803338473
1019 62 4 5.438245133168272 1.4575657538419788 12.180516001365229
217 29 8 5.70118035735233 1.2530180901089938 10.706364483161297
218 29 8 6.186756266356018 1.0902373474202174 8.49115039651105
219 29 8 7.381441509494251 0.7385763909039031 9.198417555047905
220 29 8 8.333017567727945 0.13309016741649654 9.6031670951073
221 29 8 8.049965591071075 -1.4047769606968137 10.125907184128678
222 29 8 7.767105945937688 -1.0180456177111945 8.974755365245903
223 29 8 7.172229964814913 -0.10733068025802266 8.422997692817756
224 29 8 6.742867902291936 0.3270951574212402 7.261193600495196
225 29 8 7.728276240410085 1.337166061507369 6.402052888188314
226 29 8 6.879606289483964 -0.05997528728185944 5.499581751099925
227 29 8 5.991576525508335 -0.7866177278549519 5.494530795166223
228 29 8 5.708251602046359 0.48677817001137264 4.481865853209048
229 29 8 6.8469299495834735 1.1519342437315319 5.208142151993354
1054 62 10 8.523175023643836 0.30716332750925074 4.2691858424958395
231 29 8 8.842177591666523 -0.1875505794649375 5.565770991211676
232 29 8 9.938869720609734 -0.7434877589057806 4.237859496501946
233 29 7 10.119264642054722 -2.0010244304932803 5.264059294453814
234 29 7 9.201471393755586 -2.572359181418888 3.8649234983923937
235 29 7 9.79870939161732 -2.9048754918147854 1.8996090066888918
236 29 7 8.549693658143594 -3.1749225747329635 2.0679398717498194
237 29 7 7.580342767316552 -3.3224165725272203 0.7554861635369687
238 29 7 7.921436877114912 -4.255636178481808 1.7854927062465173
239 29 7 6.449914240186863 -4.251210850607415 2.52332343081024
240 29 7 6.303091897404018 -2.865042472088637 3.51594612020533
241 29 7 5.103578086707504 -2.8590520027198303 3.27085056645622
242 29 7 6.780930807128124 -1.8101404116614708 3.149552174841681
243 29 7 8.37265021907695 -1.0806596600912983 2.650773623578048
244 29 7 7.962325609976392 0.317461502031745 3.3639287451552904
245 29 7 8.145194896812749 -1.0846771875743895 4.856443317548707
246 6 8 -0.9117421640218989 2.5676981974345185 3.8869605771310467
1052 62 5 -1.0107556638167032 0.6588821256890945 4.358441748633869
248 31 8 -3.897164210935787 1.2175325952502487 5.45878143094439
249 31 8 -3.2153864098489624 2.743047337229332 4.386183048929524
250 31 8 -2.940275004332253 3.958258755629925 4.537936542877043
251 31 8 -1.7938218631382294 4.337748299541335 3.887727872912065
252 31 8 -0.8514720321055155 3.676205648827841 3.6363325842479166
253 31 8 -1.456293395291707 2.8483868273894815 4.814743119926192
254 31 8 -2.169819892943363 3.393373831980143 5.904589527670349
255 31 8 -3.4287528601698183 2.698006079048815 5.960338132668314
256 31 8 -4.221455047649135 3.4332369869831587 6.402838734341173
257 31 8 -3.005123006555154 4.485357194718214 7.118037379484223
258 31 8 -3.9045291197388234 5.543056309712999 7.387588174961867
259 31 8 -4.7348806434747 5.74336203610444 8.595648375890274
260 31 8 -5.3923163268085625 5.383015550958668 9.394176269776711
261 31 8 -4.334078762986063 4.914096174347293 9.84138189687779
262 31 8 -2.9020606335922734 4.290287055687337 10.38354625814066
263 31 8 -3.4057326370520604 2.783171770428183 9.533037998813327
264 31 8 -4.535080580586135 3.514876547511168 10.322783544456334
265 31 8 -3.1095238221358503 3.714819438020094 11.701585009930364
266 31 8 -2.5296330591085887 3.189010561591239 10.386334768787858
267 31 8 -1.916617153595887 2.561547807827314 11.871962987812086
268 31 8 -2.330819777345122 0.848662944180915 11.756423321867825
1034 62 4 -6.600012331764679 -1.6353587871941053 10.463727130973956
270 45 8 -3.6285133214450966 -0.9550966673781232 12.746620101249757
271 45 8 -3.6525751216018065 -1.8980546912293026 14.896749190601199
272 45 8 -3.268670780585061 -1.563871815377217 13.711361428823446
273 45 8 -2.928768360836108 -2.9053012498960675 13.759099546126146
274 45 8 -3.0476258481001044 -4.298801000354066 12.665293549065439
275 45 8 -4.321865347976587 -4.498564274551833 11.809881893452516
276 45 8 -4.0448360007719 -5.490270875966016 10.383706686267073
1047 62 5 -5.09455718367668 -1.5892105839656268 8.464991480451763
1012 62 4 -1.8930368110379925 -2.379905555318189 4.4135146333555975
1026 62 4 -6.957674130945649 -2.8952440903307353 9.27833534863071
280 49 8 -7.474719767783557 -2.2836525326421993 7.837837314666696
281 49 8 -6.2745675937470065 -1.8450359674499501 7.552265712694059
282 49 7 -4.375544951112961 -1.9838484248842319 7.28702894738457
283 49 7 -3.7919777724659993 -3.9822923227238594 7.362004235843786
284 49 7 -4.756418010543298 -3.1822414434656476 6.196204927360076
285 49 7 -6.081733491345735 -3.5643388143798145 5.046167066421806
286 49 7 -6.809285712277827 -3.088630316254932 6.122875794971352
287 49 7 -6.186089690675989 -4.646496307770235 7.033730800150352
288 49 7 -6.547390638456738 -5.2306473821516315 5.7659457853837175
289 49 7 -7.538094620012223 -5.540762112053093 5.5659832955059265
290 49 7 -8.536069345985078 -6.49669385566021 5.663460927686296
291 49 7 -8.848884111478162 -5.8452722452547015 4.779557672700135
292 49 7 -9.836183567322665 -4.602943440008371 4.270929353470903
293 49 7 -10.365577431657938 -2.6179185899929505 5.030195315674149
294 49 7 -10.223552053365223 -1.5931869430026113 4.269102685971977
295 7 8 2.7794173664443083 14.462518417414362 8.83942017164097
296 7 8 2.339448290991981 14.053458596449893 7.526626668215607
297 7 8 2.8416957937598557 13.128730392846688 8.30674199728888
298 7 8 1.7642498839867162 13.487449572851167 8.93827553258178
299 7 8 1.412104705430658 12.557006056142116 7.978050110076502
300 7 8 1.054842796777917 13.868502590943981 7.41926900884226
301 7 8 0.7006823265714971 14.99314488272307 9.254173040364794
302 7 8 1.4731329949010692 14.290204333693891 9.806417601685082
303 7 8 0.07270208194544242 13.70411151694547 10.757125576739883
304 7 8 1.0869631574784138 12.939758240500646 10.693736111568144
305 7 8 1.0643654908716629 11.567348474580706 9.838887311175943
306 7 8 0.6873685837263634 9.65724402021846 9.230676094523263
307 7 8 1.8316156049324919 10.770658891555358 9.584864836132889
308 7 8 1.9123653098277205 10.007038913278846 10.920454371804562
309 7 8 2.9495989311641995 10.540190113176717 10.487452487891135
310 7 8 4.245744896897761 11.317510862256917 10.594378482536944
311 7 8 4.991988668183263 11.76396702947508 11.509360620462097
1011 62 5 4.463494767013234 7.751536335554991 8.632876879297333
313 44 8 2.1295508955126574 9.069014172812132 9.039641395251385
314 44 8 2.8475936183136366 8.09760556848667 10.029866724266142
315 44 8 3.775963088786487 7.118510063275495 9.520612129404189
316 44 8 3.0054170416244093 5.654911190767802 8.46984502867799
317 44 8 3.4160091621510027 4.847436073979123 9.2322280832506
318 44 8 3.5395113727275413 3.278034622337666 8.546195801296868
319 44 8 3.057761141197003 1.8921784275614424 8.253962584050218
320 44 8 2.9863273095273426 2.507551472941469 6.631994096272653
321 44 8 3.7420741552798384 1.417232673876837 5.040272890983105
322 44 8 2.9087294238233907 1.5961660993386988 5.977542280114741
323 44 8 1.9836497023033284 3.0209366568491895 5.280953626056172
324 44 8 1.6926148043388776 3.963765273932079 6.312697266092241
325 44 8 -0.6615135523307638 3.72075160259882 6.7391285999392005
326 44 8 -0.7147586868494937 4.894928490871159 7.30030713469938
1064 62 10 -1.1296009007136785 3.8496068924472047 7.669585461585072
328 44 8 -2.5023433615240824 4.109236449320164 8.440462483777255
329 44 8 -1.8479006346665912 3.320455163194028 7.2040511240900775
330 44 8 -1.3300132664502895 3.549527837251045 8.763316281496836
331 44 7 -0.025494203305270805 3.3258294041038186 8.837171635508936
332 44 7 0.30729180145387486 2.6314544576655847 9.909152979361085
333 44 7 -1.0118322268962339 1.9492351137274122 10.115887308932148
334 44 7 -0.09223069508854892 2.687186912689076 11.619266725205753
335 44 7 0.6508610937990573 3.3882665733879698 12.129741432527352
336 44 7 1.0560991886198432 4.565220457519614 12.344190475053189
337 44 7 0.791044139650166 4.048093088672958 13.305586625476625
338 44 7 1.4865288425343357 4.056889349275121 14.112254004999825
339 44 7 0.4834816523004161 5.20110533622448 15.269406110360597
340 44 7 -0.5375862157027893 5.936850627027887 14.854186263655627
341 44 7 0.3698376298047648 6.261243404646496 16.09925392273622
342 44 7 1.574903269799738 5.990312770016527 17.32382507627238
343 44 7 0.6981153495887271 5.034970648990403 17.334999902227263
344 8 8 7.130857081792705 18.489991709372884 -8.4277975247604
345 8 8 6.0238030761540236 18.388190473047874 -8.528448870793547
346 8 8 6.854081385518211 17.369627119007884 -8.386861005065644
347 8 8 5.575775679493693 16.850080616032567 -7.504922033223984
348 8 8 6.81358385691194 17.07979621198291 -7.2902157443611015
349 8 8 7.9349137496349815 16.300029698983376 -7.674816681112351
350 8 8 8.291607024409032 15.034431353101557 -8.74592032855077
351 8 8 7.374619727407454 16.096989851573554 -9.376342781930573
352 8 8 6.806567962155584 16.41692269076385 -10.459363236233415
353 8 8 5.91828069186116 15.256376794813596 -11.157833874756216
354 8 8 7.2912744927761315 15.266216109225155 -10.952755921568338
355 8 8 8.616364718741762 14.741980314840847 -11.377419681398495
356 8 8 8.898035988892548 12.947841836207116 -12.766321248755991
357 8 8 9.469451917181669 11.632634404224651 -11.998548562093976
358 8 8 8.982383742256575 10.707862040298782 -12.57833170281012
359 8 8 9.154344670661134 10.366675492122353 -11.13693751923915
1057 62 10 8.935842125465502 9.496521728148938 -11.947793445038911
1048 62 10 10.035966093987348 8.872564884074414 -12.32699390103447
1066 62 10 10.086368418573688 7.664024857744422 -12.246188216834383
1051 62 10 11.074056179351214 7.464417113140329 -13.388719547399159
364 8 8 10.391788369205782 6.582447088809984 -12.370779145266567
1063 62 10 10.660216438691721 5.587191730756573 -10.61147103963908
366 8 8 9.519839139568893 4.6685422001661445 -11.456594839391048
367 8 8 10.77854713542366 3.4348077644825077 -12.684035376344488
368 8 8 10.599992186222183 2.4309570060824317 -13.145961797946955
369 8 8 8.827782062089993 3.0069446932245847 -13.150482189284771
370 8 8 8.714757538043994 3.9531046949124757 -14.551916383766113
1038 62 5 10.108420694485822 7.11193206266513 -15.061408199346815
1035 62 5 14.520958280809825 5.671829397976306 -17.914050481413113
373 41 8 12.699466306260996 4.890705534246365 -15.375136321643069
374 41 8 13.331615513246907 4.202931502763335 -17.026937175642992
375 41 8 12.810102427021556 3.9345266779683303 -18.6246075903784
376 41 8 11.290628565932748 4.636797398148718 -17.465187899393385
377 41 8 11.978544226845273 3.4925043080521294 -17.907581396657115
378 41 8 11.661855432013768 1.8857478686873983 -18.226721866843892
379 41 8 12.413361429270655 0.9319654817242814 -17.77745427588628
380 41 7 13.006160354852575 -0.08378847788700963 -17.17415113697076
381 41 7 11.639202181351461 -0.06341984115205683 -16.645227752626596
382 41 7 11.938101472826014 0.5390196199457074 -18.851353713365263
383 41 7 13.463814317579843 -1.1183771618345884 -19.08010205960115
384 41 7 12.563367595002333 -2.50911588195444 -20.260016189393927
385 41 7 13.980691532996648 -0.5617615782899961 -19.899149318130704
386 41 7 15.185728397203418 -0.7988878350363228 -20.808109640800378
387 41 7 15.423397780182437 -1.018684999717375 -22.319480788115303
388 41 7 16.0928340720559 -2.397124530478378 -22.78118308357415
389 41 7 17.356756869273127 -2.376675199529507 -24.126349496051397
390 41 7 16.58608387528639 -1.2025927298939352 -23.54799664268533
391 41 7 17.85130314058187 -0.05555362606223304 -22.994664100813203
392 41 7 17.88770545244782 0.31249896029102586 -21.67177936068702
393 9 8 -3.7853814979854774 -3.1753128188681914 -15.300913623395523
394 9 8 -4.436748834185876 -4.310138556024972 -15.609055685343225
395 9 8 -5.882575703098918 -4.278248808726235 -15.116551082390894
396 9 8 -6.897936802058945 -4.188611083958038 -13.772677711936057
397 9 8 -7.2659432591649 -3.8671037385900613 -12.797030160186104
398 9 8 -8.369261096894219 -2.5437742084181107 -12.981750957074215
399 9 8 -9.178201738076455 -1.7809145536854938 -12.510170009269816
400 9 8 -8.265907720781492 -1.4926574754652047 -11.965257612050316
401 9 8 -7.209908898271563 -1.0734309491269396 -12.546683369707887
402 9 8 -6.050156236880569 -0.8959227068329241 -11.804636414198416
403 9 8 -4.984172923983604 -1.1227954574269914 -12.272048629647271
404 9 8 -4.229810767801473 0.05936599783143972 -12.755526302616515
405 9 8 -5.898738386053797 0.3421916574063891 -12.557899318042272
406 9 8 -7.8052788999260665 0.15768360962788622 -11.436933635099525
407 9 8 -8.197074210628125 0.28551266834089967 -9.248091255896231
408 9 8 -7.375185641081832 0.02988998889201099 -8.06477102197005
1010 62 4 -4.045477608177277 -0.7933068005174108 -9.761707286262888
1022 62 4 -7.822079880731931 0.550615137213019 -6.947843309016173
1016 62 4 -5.707272984025123 4.096472443638486 -7.493712930418491
1029 62 4 -4.540342429366249 -1.5032374335948708 -5.869138928124733
413 51 8 -4.160490895010241 -3.5320773425821157 -7.6914146421767295
414 51 8 -4.6460809733531105 -2.1486351573310722 -7.161882241655156
415 51 8 -5.845400734279266 -2.2569224510535917 -6.2996507960705
416 51 8 -6.041791056441542 -0.9107201011851195 -6.932745623498389
1021 62 5 -8.379328698202528 1.93567731371575 -7.645354955293038
418 32 8 -7.751987501300936 -2.5666295221520135 -5.907538664030772
419 32 8 -7.910695966703137 -1.9506563591040431 -4.727406707229998
420 32 8 -9.22290616016 -1.7775879636852983 -4.302893853014791
421 32 8 -9.60466519870872 -3.185242444771614 -4.224782934611761
422 32 8 -10.064988189659637 -2.2270167489418684 -5.254774142809999
423 32 8 -10.137110486051942 -1.9979651295663832 -6.659452237412945
424 32 8 -11.633388107109123 -2.0735608569750945 -6.611694784360399
425 32 8 -10.755286369719338 -3.141036808220999 -6.133500401201003
426 32 8 -10.088584088653942 -4.038826098950702 -7.517439248183174
427 32 8 -11.002024954489288 -4.352336988000881 -8.170124780643057
428 32 8 -11.91629749019951 -4.931155560347191 -7.751893614737813
429 32 7 -13.179297032609032 -4.595960954466628 -8.419543202357655
430 32 7 -13.832896653259507 -3.9959039142556803 -7.752530399129818
431 32 7 -14.220368783681181 -5.9566647839360725 -7.406846655190865
432 32 7 -12.791961967241203 -6.11117295625703 -7.673758489932772
433 32 7 -12.768971476336077 -6.621855790249931 -6.1041732465190774
434 32 7 -13.013669435582301 -8.110332217029487 -7.043987897630827
435 32 7 -13.121067234943375 -7.837329049523025 -8.948139151514269
436 32 7 -14.474966087521786 -7.7922016148210265 -9.763150620246492
437 32 7 -15.155464239742809 -8.117754802116396 -8.682306168696641
438 32 7 -15.645493203267574 -7.839182309157328 -7.046163987547164
439 32 7 -15.781081521555754 -7.342641583202233 -5.5348279683408546
440 32 7 -14.419680870289161 -7.560303998621925 -4.969744893057515
441 32 7 -15.322255433498498 -6.897689547050171 -4.340401267580087
442 10 8 -0.5865548972752747 14.624845455650778 -0.07400049692991165
443 10 8 -1.7590210935682564 15.548881329272675 0.564606682697035
444 10 8 -2.3827465333734077 16.225288687234087 -0.34686689038843666
445 10 8 -2.911431266559458 15.782580161014517 0.8388405366299992
446 10 8 -2.921755445953303 15.199067139480329 -0.5472339327204908
447 10 8 -3.339401077884383 13.702382527437418 -0.18495145570504112
448 10 8 -4.015267429044847 14.77769346094279 -0.1986168363916458
449 10 8 -4.495723179067277 14.120169962692138 -1.2800789986466976
450 10 8 -3.1928287165554554 12.599284082055366 -2.0753224097322094
451 10 8 -2.4299692760867657 13.591471526551842 -1.3469322714126526
452 10 8 -1.2984551071965036 12.277270982615224 -2.2091010236636444
453 10 8 0.024284632632407856 10.532249223325708 -1.5149057708143556
454 10 8 -1.7721084642997813 10.999779160814045 -0.39225197292849184