# Generated from readdy-to-lammps

1005 atoms
654 bonds

10 atom types
1 bond types

-30.0 30.0 xlo xhi
-30.0 30.0 ylo yhi
-30.0 30.0 zlo zhi

Masses

1 1.0
2 1.0
3 1.0
4 1.0
5 1.0
6 1.0
7 1.0
8 1.0
9 1.0
10 1.0

Atoms

1 1 8 -15.719938008430564 -8.772355532420125 -12.067704803863126
2 1 8 -14.833719738717017 -9.519405114925721 -13.121399411886598
3 1 8 -13.669128639796023 -8.629009694998746 -11.948751024227429
4 1 8 -12.798245770607798 -9.547522953462419 -13.466193221138195
5 1 8 -11.67267668243846 -8.421471716000363 -14.970855163522508
6 1 8 -11.342644520063532 -7.7057520038208995 -13.816829742763128
7 1 8 -10.907097046617153 -6.122007658567587 -14.079640430057866
8 1 8 -12.24350593241913 -5.248791311714262 -13.402789293681971
9 1 8 -11.719667959969772 -5.8538677674284445 -11.600028704425188
10 1 8 -10.990986593755448 -6.322053402414987 -12.835231813914449
11 1 8 -11.321571434376905 -4.915617583439486 -12.766598374044037
12 1 8 -10.724496221810995 -5.387399274269673 -11.370230616985214
13 1 8 -9.371183828205163 -5.517990896606087 -11.909192713627485
14 1 8 -8.940520458181794 -5.5820278840981805 -12.83038581741484
15 1 8 -7.707998478131282 -6.7884160663131645 -12.898903940380233
16 1 8 -7.47854607883724 -6.206412644362923 -11.599670137594293
17 1 8 -6.763316498991172 -6.431302850421842 -10.411209749964119
18 1 8 -6.190030164478059 -7.3870277532801625 -9.98039556097831
19 1 8 -7.382249796145639 -7.701547480032785 -10.119854634977498
20 1 8 -8.773407154848352 -7.137295600046206 -9.463287778015523
21 1 8 -9.82049087680295 -8.047684906313423 -7.996304961927628
22 1 8 -8.436577779471104 -8.686960100715144 -6.874592093525324
23 1 8 -8.640755522027563 -9.500300125566271 -8.381086674811362
24 1 8 -7.461430842621859 -10.03423997297696 -7.312167543562258
25 1 8 -5.884023709647148 -8.968219035862715 -8.264638668460506
26 1 8 -4.4279701247243715 -9.14313235620083 -8.497837941543272
27 1 8 -4.308099828256603 -8.12816635938384 -7.374479688775103
28 1 8 -3.8528466600162896 -7.200365876920743 -7.945061268126696
29 1 8 -3.4710805932663877 -5.935969372769144 -9.171254355479196
30 1 8 -3.237549975737228 -6.924662409511923 -9.546584080628163
31 1 8 -3.4927200811432306 -7.836891723214059 -10.133984112950122
32 1 8 -2.75530522073203 -7.147330094019761 -10.920456802624953
33 1 8 -2.0102590512751717 -6.785515179067831 -10.207112819273933
34 1 8 -2.130721591933878 -8.171885305465064 -9.599476942030043
35 1 8 -1.1449489085068316 -8.54006473426239 -11.410919987673887
36 1 8 -0.8626234479790823 -9.071667947867464 -13.210194668531058
37 1 7 0.5879595906162935 -8.486580027976304 -12.774370990700678
38 1 7 -0.16238468200985204 -7.833988670780455 -11.599979878559799
39 1 7 -1.817623482659697 -7.71943531211865 -11.087991306377518
40 1 7 -2.6839147160970405 -8.933281899120985 -11.259773789929799
41 1 7 -4.631657331669093 -8.521874471009868 -11.895062125287303
42 1 7 -4.799822337162067 -7.0269908942679145 -12.147434280386893
43 1 7 -4.98254492551247 -6.869401615804515 -13.348282695238417
44 1 7 -5.207203256534585 -5.477340815445982 -14.21223326316623
45 1 7 -3.929454411805068 -4.286241311946024 -14.735918205036418
46 1 7 -2.9024560582977528 -4.154636348519777 -13.406864057491937
47 1 7 -1.622919319035875 -3.5455902791187923 -13.852072755755835
48 1 7 -0.5322616761916811 -2.7470099682020317 -13.998622681579523
49 1 7 -0.7700498566511114 -2.6021896086391116 -12.023022692506363
1050 65 10 -0.9437682687120704 -2.1360340269655524 -1.342140936901294
51 65 5 1.1795658139193954 -2.2246177023184006 -3.4477979195769266
1046 65 5 3.4804902136618963 -3.3840849177714043 -3.57367955770493
53 65 5 0.042664721608181064 -2.8060649921397887 -1.833991289475235
1042 65 8 0.2763813239300002 -3.38259410488156 -0.24879002363257133
55 55 8 2.9939659448405385 -5.089810986365735 -0.8637295977363758
56 55 8 2.8157452198308324 -6.484445333478407 -1.0017982559216627
57 55 8 1.6763225031129978 -6.485316785491954 1.4223699578784608
58 55 8 2.0246605537636313 -6.16572034465979 3.0377758092784566
59 55 8 0.8684613718239762 -6.403620215495725 2.787875240039908
60 55 8 0.9080445158774662 -5.256726709628751 3.7780053048033917
61 55 8 1.0116936607265714 -4.2649593029928745 3.539078973302403
62 55 8 1.352503667790005 -4.080692166434521 4.887622066790075
1007 65 4 -0.5655513359381419 -6.633026243141791 5.7257820531901995
64 27 8 -0.32646083159063244 -2.9649095479795022 1.6947326210726876
65 27 8 0.13564649741461002 -4.730019491400694 2.3472788486066403
66 27 8 -0.9042462068676771 -5.19622151398965 2.1374126777943867
67 27 8 -2.526808073717165 -4.677477397815599 3.0111464028546115
68 27 8 -3.464911676778073 -5.117386662530769 4.283156304687965
69 27 8 -1.9164233201719438 -3.8886346453142147 5.073593533894864
70 27 8 0.26433472983148404 -3.34499288669239 5.756151690861209
1036 65 4 -0.8826236480316786 -3.7954876766117227 4.33300686477901
72 65 5 -0.4792796217758674 -1.5956648560042712 4.51103075099675
1009 65 8 -2.4714128232620745 -0.592421072361505 4.956555265338148
74 57 8 -1.2265129166600157 -0.47613149385704556 1.1830289632184205
75 57 8 -2.543574836338737 -0.4033850371084851 1.7326346180989651
76 57 8 -3.4702233648887533 0.22135022653304604 1.5428593055397006
77 57 8 -3.672298401032538 0.45067384881926936 2.765609580685865
78 57 8 -4.675334158680254 -0.5988491765890593 1.6934404121838385
1037 65 4 -5.851259837890599 1.005472668728274 5.744787522075791
1017 65 5 -4.657275406762294 0.9062174002534009 3.863511911393358
81 60 8 -3.4558779339414802 2.5349486094785227 1.9452349126038488
82 60 8 -2.6039239257677824 3.444543089832781 2.528281176464543
83 60 8 -1.4744509307100706 3.8535391994704935 2.1963132165014723
84 60 8 -0.9162747277339239 2.6845541190928786 2.3298103524727534
85 60 8 0.4309973599037709 1.3259995838347869 1.7149936237247267
86 60 7 -0.09133239992284838 1.1926014196032273 4.103820721172329
87 60 7 1.1370362726262087 0.16745269023889872 3.249597646960986
88 60 7 2.584875082460662 -1.1249341321175348 3.2737719645520564
89 60 7 2.0542694709236864 -0.7703832759528975 1.7605951044720252
90 60 7 2.0408851897960365 -0.444639824768393 0.496432801405903
91 60 7 0.5348373490477617 -0.9210187574060088 -0.34328010858605607
92 60 7 -0.09774651363143926 -1.3036387240939917 0.7779572441653566
1044 65 7 0.03227977039939571 0.4755445852424059 0.391255647538618
94 59 7 -0.5853693100212832 1.2631511284569605 -0.2614618700090069
95 59 7 -2.299341454150869 0.036659729581650716 -0.9248355996006725
96 59 7 -2.0117166246702562 -1.221660610796557 -1.506644768487654
97 59 7 -1.7177972734249551 -1.6740358754154598 -0.34696669079552417
98 59 7 -1.9590846512414641 -2.7451347011513745 0.09422053959684612
99 3 8 1.5661029020559218 -10.136612020340579 2.171766639457131
100 3 8 0.7302731857420499 -9.57639751360798 0.7015002026160426
101 3 8 0.8053366714163064 -7.402789649356946 0.9727432679335883
102 3 8 -0.45290712583833564 -6.545567890888136 2.0549692260924064
103 3 8 -1.1397075664639362 -6.995466133456417 0.651602880960021
104 3 8 -1.2939971464900202 -6.993300065585079 -0.7673124177478918
105 3 8 -2.525747504290901 -7.483185065775531 -0.5111087081287494
106 3 8 -1.9959276797184575 -7.557815636790028 -1.5745436371904795
107 3 8 -3.348933677156002 -8.217932473466583 -1.8655358267473814
108 3 8 -3.6780091099051857 -9.255272988834436 -2.9624469410352905
109 3 8 -5.146737864894531 -8.677109580043682 -2.3048633609572367
110 3 8 -4.925290661533863 -9.319074096279298 -0.6820612456546803
111 3 8 -5.058669391522072 -8.393855992747056 0.33079772025116533
112 3 8 -5.546882592966293 -9.643071967633485 0.7984166413092149
113 3 8 -7.02735069372069 -8.62425337110876 1.5825449845123936
1024 65 5 -3.8609179353841605 -11.644363354165193 -0.6474953139551685
115 44 8 -6.077033255614794 -11.849311909571506 1.6210360856253263
116 44 8 -6.042791290460846 -11.122705371374469 2.4805448738206124
117 44 8 -5.85288057394112 -9.889576146934598 1.979751622155911
118 44 8 -4.560877907817737 -9.114340078220176 2.0356562100357087
119 44 8 -6.0624501784098115 -7.964889315462258 1.6731063463001576
120 44 8 -6.618513126671814 -7.562242366652253 2.775474348517542
121 44 8 -5.568136721137018 -8.639810591921568 3.287336177953026
122 44 8 -4.317361851160491 -7.682157998393474 3.6157568218743177
123 44 8 -4.415094649642763 -8.41048814116878 5.249516202310566
124 44 8 -4.675941415781718 -8.950741504630278 4.261572522579745
125 44 8 -3.6690260100875647 -8.894800784559715 3.633600623340432
126 44 8 -2.0917339299028015 -8.997548591644767 3.223576042160541
127 44 8 -2.0903537563777177 -10.363089740900461 3.0287782176000193
128 44 8 -3.5854547255525957 -11.659411484279843 3.6297503966381273
129 44 8 -4.240266297895637 -12.414187101895557 4.508632476116882
130 44 8 -4.733948552258143 -12.246295386772017 3.4820823346384917
131 44 8 -6.484941102830442 -12.901431994892324 2.443887440739678
132 44 8 -7.257931478112464 -12.77786457875028 3.1976043248372146
133 44 8 -8.925193945504164 -12.099403630455704 2.989353565441681
134 44 8 -8.626999757685475 -13.105272820163306 2.5944087100246715
1025 65 5 -6.720581246893594 -14.851917656115184 -5.251251252313583
136 41 7 -6.96736619962846 -14.283453597984213 -0.4573109866335198
137 41 7 -6.12173934935563 -15.721467063946955 -0.678159984949412
138 41 7 -5.676825092034484 -16.923301050756876 0.3927545844458501
139 41 7 -5.45909462072078 -16.63161356665849 -1.146087652838787
140 41 7 -3.925577971440758 -16.661595940262497 0.5313323361681899
141 41 7 -2.5861252551460847 -15.330538694597767 0.3285862396674342
142 41 7 -2.419007749410116 -15.102790732009232 2.4194363496041014
143 41 7 -1.9031833228799921 -14.425632778911561 1.9816134593370103
144 41 7 -3.1320045925272786 -13.868435931959166 1.537203075756013
145 41 7 -4.249239852143146 -13.45875861984539 1.677559476467001
146 41 7 -4.242166187454455 -13.305736963887659 3.2849196293231913
147 41 7 -5.265706866634109 -11.928483141993857 4.280559983659732
148 4 8 -0.6139554336629941 12.085564974963356 18.019239044820715
149 4 8 -0.870030565580595 10.292109406968063 18.13805917675255
150 4 8 -1.3856423234236817 11.563004669857687 18.477281981725802
151 4 8 0.06084562225849057 10.835522745570074 18.380970163998526
152 4 8 1.1712552968065002 10.011976087989883 17.928379521584965
153 4 8 0.9141248198849621 8.980658971509412 17.425685058211993
154 4 8 -0.7583781211579964 8.729103833694863 18.06612816711719
155 4 8 -2.3705248858650227 8.8476333441207 18.201517604642135
156 4 8 -3.2125335914846866 9.180944323592698 19.035602031861792
157 4 8 -2.6095156811348117 7.616882878606339 18.393641033053218
158 4 8 -2.482872110606645 6.91816671363297 17.490611743497762
159 4 8 -2.4882550219125554 7.015421272511 19.209622535154192
160 4 8 -2.1252157003374816 6.632612140242448 18.343183777371344
161 4 8 -2.167641291119309 5.4886911009681505 19.417415157887998
162 4 8 -2.5453890723699284 5.340476574524731 20.930091991455395
163 4 8 -3.1015687381073973 4.2997844051033915 20.949088568111126
164 4 8 -3.8561407988654888 5.296025731364233 21.265510001486554
165 4 8 -3.5868681255874573 6.700865145134645 21.090601293504246
1031 65 10 -4.6956552524845625 7.350093409256169 21.1800193317498
167 4 8 -4.242427054545661 7.8897996574452565 22.193649710891254
1043 65 10 -3.972412818031631 7.6179463818473785 23.83852118555385
169 4 8 -3.8016895909460398 5.7666811068954615 22.99134952633988
170 4 8 -4.928601373554716 4.831079560777198 22.757178594508886
171 4 8 -5.896285770248442 3.61529795521165 23.03871855105628
172 4 8 -5.150688044683496 3.250989358061863 24.775750186528015
173 4 8 -4.470547798699761 2.1040139860198495 25.00759235957633
174 4 8 -4.472494790449949 0.7790519873438306 24.678207366869554
175 4 8 -2.8926869043445036 0.8976995493835455 24.637399654887655
176 4 8 -2.0221739902142235 -0.022742144569317755 24.559641732005378
177 4 8 -2.5993634094678693 -1.5609196565070829 25.482911535520664
178 4 8 -3.0793837095777277 -1.133495923118981 26.694312495231145
179 4 8 -3.408343005634799 -2.1791789960947314 26.778674355555292
180 4 8 -3.9665489278679535 -1.576457775012333 27.50369663770873
181 4 8 -2.6236063867151103 -2.590487523822645 28.296850269552
182 4 8 -2.5629890669686204 -1.360969512729664 29.158103864458383
183 4 8 -0.940340418094343 -0.9034596165085276 29.62719937730406
184 4 7 0.12033718080854859 -0.8438384413308591 28.792278856709515
1028 65 9 1.9244382672394846 -1.3546560735054185 28.70101438396282
1023 65 9 2.150911399599523 -0.7758994772925143 27.273080908120054
187 4 7 2.1754376031493217 -1.002668146714273 25.71065354517858
188 4 7 0.06020337797960535 -1.5805545864469608 25.639579898800683
189 4 7 -0.29212868858633767 -1.8311426995402096 24.34497005333809
190 4 7 -1.7078397993153476 -2.064782365433163 24.58058996073747
191 4 7 -2.063674473122275 -3.661629698260962 24.221555713331174
192 4 7 -1.6338492920046626 -5.101945854286359 24.19753485635957
193 4 7 -2.614112049004682 -4.607604814371425 22.750886208208158
194 4 7 -2.8750155054895368 -6.036963366537195 22.918897500047308
195 4 7 -2.8009105233300944 -6.813113608689407 24.507583555858993
196 4 7 -1.4899493912684223 -6.173894857369313 23.316769308295644
197 5 8 2.1947585393610423 -3.2183486050493078 13.045569385769785
198 5 8 1.950381322510288 -4.448666518588639 12.96634304217106
199 5 8 0.9239948353402554 -4.9720732639439715 12.242438580875252
200 5 8 1.0439156597360426 -5.444536269169647 13.313939229589726
201 5 8 0.7338153922091583 -3.9052823385009505 14.397270100995112
202 5 8 1.1754963512434218 -2.7698269538344404 15.044917194247065
203 5 8 1.9191977334536776 -2.8823140868859363 15.805857405800865
204 5 8 2.5355944052494133 -3.0449510416230754 17.161598187515363
205 5 8 2.985661044209981 -2.0907692244828393 17.84103307371646
206 5 8 3.376262909088133 -2.0540661296872122 16.63390256550412
207 5 8 5.139647954604684 -2.495594507241879 17.46694521242699
1056 65 10 6.342096791648065 -4.433671557635647 17.39637938098334
209 5 8 6.09368775553231 -3.3112581870518114 15.79630446832833
210 5 8 4.937021856835965 -3.2207445971078865 14.388381790599531
211 5 8 5.581927929940994 -1.7723422936022635 14.103875355923888
212 5 8 6.449428273081982 -1.4028664659530405 13.501348240695801
213 5 8 6.338273533887567 -2.370206391964776 13.272570617579422
214 5 8 6.280912815059343 -1.4838588720862826 14.704140306498424
215 5 8 6.429808622451146 -0.603219943510066 14.35620510550854
1019 65 4 5.158427487718556 1.4505397246140563 11.998191910647755
217 30 8 5.791596920758695 0.9438976899018644 10.686155310446276
218 30 8 5.996515232811992 0.8107951782006367 9.28796154664082
219 30 8 7.731296126483103 1.3836046064644514 9.240794744064305
220 30 8 9.160288289418565 -0.3541967257815466 9.098042267273303
221 30 8 7.903505364668668 -0.9282636990372894 9.289377832397971
222 30 8 7.924040277991647 -1.5385646831323283 8.340786224062558
223 30 8 7.605968437916099 0.1383158395626389 8.773455389799494
224 30 8 7.335195718734625 0.033574769877295275 7.744130796187654
225 30 8 7.691293887533668 -0.35430589347386776 6.733592189023948
226 30 8 6.767131765693703 -0.08107174656069785 5.397176846738475
227 30 8 6.7405236739471714 -0.6327011895432115 4.16789295919613
228 30 8 7.216748881048802 0.31016331632569955 4.56892561959653
229 30 8 7.707445486192036 1.2538118717584925 6.123008012604384
1054 65 10 8.406526396297435 1.500391682011357 5.105395301431262
231 30 8 8.729082334966906 -0.0990382736410223 5.653737808064264
232 30 8 9.388542928338886 -1.7729632199165237 5.5620738135781735
233 30 7 9.727041532737992 -2.5290129295806874 5.024923793491874
234 30 7 9.083509471531322 -2.4722316414818493 3.54074428517968
235 30 7 9.7085271971327 -2.6804928849305796 1.9216956356899895
236 30 7 8.585822501634137 -3.436084140047746 1.841770017477463
237 30 7 7.579858072222619 -3.940047637273159 0.9443696502715409
238 30 7 7.547891249220819 -4.486771810781373 2.0264007839251454
239 30 7 6.372736175273307 -3.176233694042409 2.029182397822983
240 30 7 5.879062267052965 -2.237426050580502 3.2640174996122346
241 30 7 4.613005083515399 -1.9116473260109919 2.8647450495318676
242 30 7 6.53627080671675 -1.1269242115543907 2.670364572801042
243 30 7 8.493207037847238 -1.8042434914269685 2.4314814828110585
244 30 7 8.256240446892907 -0.8544921290946424 3.5370027999375013
245 30 7 7.61903833668653 -1.256723603629278 4.654308953050838
246 6 8 -0.23644678468034397 2.5665387398575468 4.29745165742958
1052 65 5 -1.3484405938025834 0.3814350558766529 3.9150063526050496
248 32 8 -2.960365316989934 1.0270463914559365 4.85876897431542
249 32 8 -3.1632543270990303 3.2716982131124386 5.065806469721531
250 32 8 -3.285980590909068 4.842968478429819 4.78251634444494
251 32 8 -2.076422349622098 4.916101673757286 4.196217322278452
252 32 8 -1.231968268471297 3.830335152886182 3.6486789815658525
253 32 8 -1.9913764090807355 3.0804071066261525 4.688018083115972
254 32 8 -1.980440068805069 3.7223063478681113 6.204059222777576
255 32 8 -3.091126088595594 2.8024259286134834 6.063110097874301
256 32 8 -4.1567263826606125 3.4140287286894186 6.4950341161881475
257 32 8 -3.3668555025047864 4.829723412585847 7.800419641568065
258 32 8 -3.9120704668116018 5.2908289771005945 6.9271270738291735
259 32 8 -4.173735131865722 6.179050659698057 8.151361414187749
260 32 8 -5.435592754583385 5.354423273703956 8.938430815747632
261 32 8 -4.084921119372614 4.846999166993819 10.082812925977871
262 32 8 -3.042991771968186 4.817651324937177 9.433040377439605
263 32 8 -3.2586561342997733 4.002378319384362 10.09024370941333
264 32 8 -4.27383353834113 3.2295316437504087 10.081264993527926
265 32 8 -3.878556110141727 4.2198798608612815 11.035867351591275
266 32 8 -2.2091267631407345 3.5315473876573957 11.527369136241164
267 32 8 -2.3793183341215314 2.583857550654954 10.840386107987653
268 32 8 -2.623038003730283 0.7075030683250402 11.700246882495968
1034 65 4 -6.119619144487781 -1.19242669577954 10.830203063241923
270 47 8 -3.3625390933829986 -1.206095685462044 13.411902926844249
271 47 8 -3.37854055883742 -1.5012097991534783 14.69068705010744
272 47 8 -4.1326247813048544 -1.8719671239686877 13.838170626497591
273 47 8 -2.7457233573497875 -3.63135945362735 14.166210847441635
274 47 8 -2.97925889001997 -4.203969631955256 12.3469787140675
275 47 8 -4.207644587755749 -4.644154629833649 11.95021990836992
276 47 8 -3.574438471173331 -4.870615687153474 10.695472746288159
1047 65 5 -4.811657310531004 -2.224616642405372 9.298197808801625
1012 65 4 -1.5458163543140262 -2.334800179740723 5.17504245810275
1026 65 4 -6.573706938405046 -3.220475791057584 9.343721880938606
280 51 8 -7.266958635526957 -3.2129753888735433 8.413883546816727
281 51 8 -6.145784759222085 -2.251053725491677 8.338439883108006
282 51 7 -5.067736504744137 -2.913069730441945 7.142233372941006
283 51 7 -3.940656333599336 -2.6466568686479386 6.940427905041575
284 51 7 -4.54997308545509 -2.905699916131539 5.805774849114668
285 51 7 -5.939563043733337 -2.5407559026600834 5.490355770401211
286 51 7 -7.190586386300808 -2.7605288748223025 5.5736638087529276
287 51 7 -6.412428989301316 -3.988992725929879 6.533953076003657
288 51 7 -6.413301995112141 -5.276959359810773 5.8655688063476985
289 51 7 -8.10664792880278 -5.000742790073515 6.146502395135899
290 51 7 -9.043481758859294 -6.335764864285927 6.7172809812028715
291 51 7 -9.118002129399146 -6.919221853924864 5.204363406390421
292 51 7 -9.271091702121376 -4.932486719985533 5.418599309902325
293 51 7 -10.44250809824384 -3.3370667564832837 4.844482595254806
294 51 7 -9.514247533587346 -1.3875224945966411 4.780001878251255
295 7 8 3.213635475977993 15.02075130873014 8.48407672699315
296 7 8 2.893913188112128 13.03872582289318 7.577294935054202
297 7 8 3.57134219062128 13.13514627853251 8.780158715950671
298 7 8 1.8657903314255726 13.373786261772548 8.665637793475684
299 7 8 1.8975323319178978 12.061815705902033 7.898623458284652
300 7 8 0.7099640193470634 13.860325879801577 7.671432868444695
301 7 8 1.6384085717520285 14.92279069587842 9.185532567559914
302 7 8 1.5114550936430111 15.106227795802406 10.149757398660146
303 7 8 0.589993940261397 14.240478124629192 10.02701548406813
304 7 8 1.82091047220136 13.19644593685667 10.327930793435009
305 7 8 1.663546353326063 11.491897049862363 9.66059113175027
306 7 8 0.47778355067702516 10.423917614568222 9.356013230023915
307 7 8 1.4188980439152161 10.953016203297045 10.652056059548809
308 7 8 2.0904044618881508 9.999833859357516 10.876547130004356
309 7 8 2.8787818382566446 10.22956005442365 9.416611394907614
310 7 8 3.837110340996211 10.849313431272241 10.157121184681351
311 7 8 3.85564929414896 11.532637645755884 11.278776736086321
1011 65 5 4.779593918835518 8.593859138019967 8.442816517334725
313 45 8 1.7085743204082198 9.283737612729958 9.015605247301677
314 45 8 2.6035775478688628 8.16923003816159 9.60086305058937
315 45 8 3.9490946531243845 7.352226579838877 9.311422532287311
316 45 8 3.5523127170276196 6.315091017002747 8.957498287942396
317 45 8 3.124517636576522 4.875352974375331 8.979793424874563
318 45 8 2.0516237770404553 3.6857858972927544 9.069355413623759
319 45 8 2.977917162910303 2.584094411021562 8.912725917950299
320 45 8 2.8198424855677735 2.4227033805718396 6.833791753062643
321 45 8 2.102146624676707 3.05375023335904 5.206022325782303
322 45 8 2.3772702039326825 1.1623003204202065 6.0907057995058445
323 45 8 1.3685973336050965 2.2519219804174386 5.933467787569515
324 45 8 0.8831709848661924 3.5181634504240007 6.444602010150626
325 45 8 -0.31146341863309657 3.555878930246081 5.948488431729978
326 45 8 -0.6953232092247144 4.668146615869245 6.706280776846078
327 45 8 -1.0928769360240935 3.9018357098722585 8.020900350834943
328 45 8 -2.2880086680331004 3.5173507007618157 8.870365071369015
329 45 8 -1.9931399169955373 3.24804114814333 7.448074905517425
330 45 8 -1.3704762094347736 2.832692136835398 9.045693654472815
331 45 7 -0.4106276318222093 3.2050770244388938 8.527740984965352
332 45 7 0.13117248631705536 2.3924922508693456 9.690034116331733
333 45 7 -1.1372727759018684 1.474244994304179 9.9219585429767
334 45 7 -0.17162795504061518 2.1181223532019566 11.744323667719383
335 45 7 0.7093690734860064 3.013461582712648 12.025893954361086
336 45 7 1.2567202825030845 4.2096292584916535 11.804984620278475
337 45 7 1.4538545709482114 3.2542817715971797 12.894623643435118
338 45 7 2.0276850023969404 3.2811800782577345 14.243085324070238
339 45 7 0.3569875824663935 4.594374964107501 14.564709035106219
340 45 7 0.04928229569059079 5.661476648045088 15.162117554053644
341 45 7 0.41954760636531857 6.44380731509291 16.1880338451084
342 45 7 1.8506588206055625 5.965717325433602 17.251833421079088
343 45 7 1.0011805630062012 4.8877164430145195 17.370264954267448
344 8 8 7.3670167095357995 18.248644501146394 -9.232008503845067
345 8 8 6.58872517449723 17.4927010078639 -8.578391204132286
346 8 8 6.961068910511528 16.49685179289665 -8.610411131943328
347 8 8 6.085950229288918 16.090437319854882 -8.326452171324135
348 8 8 6.528929794517002 16.71179970512483 -6.9290374922509
349 8 8 7.577695450731221 15.311481055520447 -7.869033107646887
350 8 8 8.502406845527842 15.933193895145541 -8.640202027109805
351 8 8 7.706093879634954 15.983446251888099 -9.842008413009847
352 8 8 6.820760419301541 16.949706684604838 -10.572259711176953
353 8 8 6.6580713228790405 15.922888578862368 -10.88708083057949
354 8 8 7.641517558773074 14.940644679026862 -11.862512310979337
355 8 8 9.08020991118038 14.526996945148836 -11.175999448482214
356 8 8 9.43245743276569 13.03649283437621 -12.25075392667537
357 8 8 9.551476981184235 11.537069118183538 -12.273001692575434
358 8 8 8.748025048488246 10.610912489031397 -12.00114312462824
359 8 8 8.656544148197437 10.223417313973469 -11.098659133690338
1057 65 10 8.832980100910323 8.960332631650767 -12.3862185748569
1048 65 10 10.128244929879227 9.050194722495974 -12.710626884007217
362 8 8 11.3911929715341 7.846124050868494 -12.692149537092456
1051 65 10 11.05171233614393 7.072453105496452 -13.410931780630571
364 8 8 10.647861361662201 6.079260100178402 -12.715158455679404
1063 65 10 9.750070291929806 5.372007716903297 -11.659072893235631
366 8 8 9.435168408636502 4.365285547178307 -12.419821037490582
367 8 8 10.002813182386998 3.3041871868454007 -12.704691452417391
368 8 8 9.807172091479822 1.502597883680922 -13.458334744539385
369 8 8 8.613178656959056 2.2690504237844493 -13.663777057998363
370 8 8 8.08538345534513 3.563992264579994 -14.867267044075534
1038 65 5 9.988500568785538 5.67677256214112 -15.651340214913025
1035 65 5 13.696221064233377 5.903617998192007 -17.529629586491083
373 42 8 12.436809781890778 5.50207337986505 -16.18926879467236
374 42 8 13.44108438639173 4.731889388407537 -17.064289065424674
375 42 8 12.727803800510959 3.7341530634167395 -18.400057843717274
376 42 8 11.613421183585118 4.0673731712298515 -18.561171498891962
377 42 8 12.269337067549724 2.743828125007491 -17.323468203516228
378 42 8 11.175070315917177 2.0544226398518455 -17.57995401131723
379 42 8 12.21230048016057 1.2321952763740673 -17.958964125678495
380 42 7 12.927452167523741 0.4925037963787823 -17.549369289455367
381 42 7 11.88867437004001 0.19147508280524486 -17.448221742446005
382 42 7 12.870929426580357 0.22171067470141392 -18.96527796725491
383 42 7 13.277816763562852 -1.0660812957451602 -19.48275807007358
384 42 7 13.659443886397568 -2.5696838210428976 -20.492856444275592
385 42 7 14.380138909256978 -1.593224547763488 -20.60521382047815
386 42 7 14.608896780578243 -0.5375011582636159 -21.88417007974409
387 42 7 14.809522041796207 -0.9157028297409617 -23.132892188398753
388 42 7 16.067519228332575 -1.8460568583110553 -23.22529176181747
389 42 7 17.830738913393052 -2.1120093059648983 -23.318989538532982
390 42 7 17.38249819922394 -0.46779283348347145 -22.99050686956111
391 42 7 17.65701084991514 0.5360419064182498 -22.454851735065244
392 42 7 17.82117469356696 0.32303485985556507 -20.928548526455426
393 9 8 -4.6460518474905275 -3.152094631122796 -14.981802519431296
394 9 8 -4.672522750358512 -4.305018157396001 -15.708924218607157
395 9 8 -5.9206983796845325 -4.310568322344019 -15.463089914795097
396 9 8 -6.667443815868464 -4.092622690176623 -14.468046222590559
397 9 8 -7.630596557984262 -3.6243002116088996 -13.242992128000228
398 9 8 -8.53866166984022 -2.4215805769787697 -13.916500463285058
399 9 8 -8.624530376839031 -1.5338540080515537 -12.224412571177904
400 9 8 -7.6767085059856885 -2.2726715605584897 -12.343859848175848
401 9 8 -7.633653763041073 -1.1903441315595078 -12.920429007149924
402 9 8 -6.527349131012606 -1.2098847192029523 -11.803881458112416
403 9 8 -4.744851053217821 -1.2228309880556885 -12.552975718145015
404 9 8 -4.199762386541892 -0.2850663448716493 -13.013780247912095
405 9 8 -5.637399261027598 0.1362476143054809 -12.477477574127088
406 9 8 -6.9944003251781135 0.21067450546634423 -11.229446610511953
407 9 8 -8.144810033286085 0.4834344611344544 -9.578471791065603
408 9 8 -7.467800338592738 -0.01880396851830247 -7.742749332948647
1010 65 4 -4.803755894759 -0.315221816203878 -9.13857667625605
1022 65 4 -8.206365073782724 0.7381674093832712 -7.290391335690684
1016 65 4 -5.705071451804135 3.941953905603897 -7.09523825717937
1029 65 4 -3.583278739460002 -1.7152518711331644 -5.1553646307356695
413 53 8 -4.00843753440768 -2.463467519423857 -7.847559363372028
414 53 8 -5.266975643005097 -1.9132455004038114 -7.748664433501292
415 53 8 -4.818606102182963 -1.3305766275220794 -6.659782879949764
416 53 8 -6.377263546806959 -0.483869437453079 -6.9731021004857
1021 65 5 -8.467774860795233 3.153067748350212 -7.1713241938579575
418 33 8 -8.212657670237377 -2.257454085306151 -5.478206864115477
419 33 8 -8.775801612004507 -1.4002592779583583 -4.8450354086247245
420 33 8 -10.012686280589177 -1.724210888865248 -3.809071281459436
421 33 8 -10.275467459045755 -2.871933977092168 -4.653910555838818
422 33 8 -10.18224143381918 -2.8366190795856574 -5.807941417859664
423 33 8 -10.053287465035515 -1.993690771727423 -6.482980255314279
424 33 8 -10.74922730318051 -2.1907291218773186 -7.33354475410021
425 33 8 -10.613314442059195 -3.4193545038154656 -6.5789905852665775
426 33 8 -10.3853504665236 -3.8501277394491513 -7.5355131889750275
427 33 8 -10.962470108397932 -5.126646136523376 -8.092117119828627
428 33 8 -12.209660902909395 -4.474540405280513 -8.066511396123012
429 33 7 -12.9952567013596 -4.982652822506739 -8.616174640598777
430 33 7 -13.903090606002332 -3.979392884680102 -7.956712179234078
431 33 7 -14.281518113306882 -5.579782011201655 -7.667156835329391
432 33 7 -12.17385839475732 -6.296090835143146 -6.894493599132993
433 33 7 -12.99339756626311 -6.930798990826191 -5.972919177570759
434 33 7 -13.483713715604733 -8.117964671289803 -6.730620144578775
435 33 7 -13.48233153467124 -7.478885013092118 -8.540079929336514
436 33 7 -15.187976395995031 -7.421154173291569 -9.646945020890719
437 33 7 -15.26515924486186 -8.728124429472409 -9.123062250553646
438 33 7 -14.98516994764508 -8.770944555548175 -7.0206732242652725
439 33 7 -15.905795786879107 -7.341892591437699 -6.550408275621244
440 33 7 -15.168144352446154 -6.614373980699799 -5.394307219727076
441 33 7 -16.065303992480274 -7.670621767452695 -4.376018108952972
442 10 8 -0.45092172726212415 14.841507613800925 0.22527763814242371
443 10 8 -1.4077365019911856 15.342371670481938 0.2883715617717358
444 10 8 -2.581737191228617 15.557838067341585 0.1813828617451565
445 10 8 -2.554042752648888 16.091803533719784 1.0988621474832867
446 10 8 -2.8680356323003955 15.211227312945603 -1.0436745813273605
447 10 8 -3.297976337943064 13.862092696590995 -0.5651736985023893
448 10 8 -4.557551153284147 14.555520266598382 -0.26571247050539454
449 10 8 -4.190719729500377 13.863147299606583 -1.4025363387736047
450 10 8 -2.728498667373914 13.041730770213281 -2.379971151036882
451 10 8 -1.550229801769957 13.676598662367688 -1.5079823855065149
452 10 8 -0.8408289498152971 12.26204814877997 -2.04253001367536
453 10 8 -1.0159898606228688 11.146531373931875 -1.426034620912807
454 10 8 -1.5450448650096094 10.7878564023992 -0.4001813701213283