# Generated from readdy-to-lammps

1005 atoms
726 bonds

10 atom types
1 bond types

-30.0 30.0 xlo xhi
-30.0 30.0 ylo yhi
-30.0 30.0 zlo zhi

Masses

1 1.0
2 1.0
3 1.0
4 1.0
5 1.0
6 1.0
7 1.0
8 1.0
9 1.0
10 1.0

Atoms

1 1 8 -15.594396254052429 -9.69087847938054 -11.619651918415316
2 1 8 -15.69227393832443 -9.134502308864132 -12.672947520385266
3 1 8 -14.905716661737324 -9.552371682485132 -13.681508805088612
4 1 8 -13.66806119189777 -9.36617592351031 -13.941180388320339
5 1 8 -13.390934507096098 -9.437267220740326 -15.345709450448297
6 1 8 -13.180241052939866 -7.83522450931062 -13.838746778534524
7 1 8 -12.463521684868281 -6.712472013819455 -14.438591590837827
8 1 8 -11.877709929209104 -5.867167164598896 -14.193209789390773
9 1 8 -11.988305901529845 -6.241501994928325 -12.4160345329315
10 1 8 -11.46425306826324 -4.6257569596553845 -11.733501737878486
11 1 8 -11.345969631879932 -3.9699746192948338 -10.939326207886792
12 1 8 -9.988453853932116 -4.629274968941561 -11.111363513061816
13 1 8 -8.77836794373209 -5.618243824777652 -12.073917855488682
14 1 8 -7.968018603434428 -5.448578449777414 -11.564899536150278
15 1 8 -6.9653975545635545 -4.556210012610453 -11.855523309775812
16 1 8 -6.955084351261057 -5.210258070705989 -13.34579862815367
17 1 8 -6.90250361394525 -5.537263303269328 -12.285182767256046
18 1 8 -7.307451571290276 -6.8253696780034145 -11.985592695970123
19 1 8 -7.86654190463575 -7.329863256242267 -10.917001530146596
20 1 8 -8.681629857277015 -7.614408057492512 -9.946529590976866
21 1 8 -9.597323110974822 -9.597020486949141 -9.418360074236974
22 1 8 -8.329623469555841 -8.811441077058495 -9.296744661297264
23 1 8 -7.457945708360567 -8.342430176690417 -8.567191722057759
24 1 8 -7.495236511938942 -9.366248466205452 -7.539462629438633
25 1 8 -7.059250262933463 -8.318030545088769 -7.4670756690321
26 1 8 -7.097670095556832 -6.604907550755686 -6.690758340353041
27 1 8 -6.138044806753423 -7.923762734026429 -6.931967934181429
28 1 8 -5.239631474785654 -6.9187550224481935 -6.799984575280816
29 1 8 -4.621115901437401 -7.594449592183479 -7.985600677627062
30 1 8 -4.232926884570164 -7.465166283661687 -10.273586279757524
31 1 8 -3.589802442714984 -6.024464881337656 -9.8802062903648
32 1 8 -3.5643996677771947 -6.822626265771472 -10.701131336506265
33 1 8 -2.642030772630041 -5.793947626914152 -9.672950107517474
34 1 8 -1.7412426084913124 -6.075008154605553 -9.092432870659625
35 1 8 -0.0739114225848 -5.983577664637463 -8.8439441867956
36 1 8 -0.3350295486341416 -6.72241614339386 -9.846675421545433
37 1 7 0.5820722745603291 -6.708714974726494 -10.456787847692453
38 1 7 -0.9524047417083386 -7.025537940007615 -11.574741803817883
39 1 7 -1.0987388281332333 -7.270554721307823 -10.364945230676451
40 1 7 -2.265044887453583 -7.560035248621406 -11.627010508488638
41 1 7 -2.4355098751611814 -6.9194682206717 -10.672255719387254
42 1 7 -3.5400210524488576 -6.062595931949055 -11.499214096990976
43 1 7 -4.950888896151718 -6.449526493442452 -12.1206056041985
44 1 7 -4.330060590756186 -6.837275726664343 -13.089306500143259
45 1 7 -3.0380426375161904 -5.603586667809246 -13.168685982096523
46 1 7 -2.7366480967963622 -4.754261467992934 -14.503410808609651
47 1 7 -1.5208374644023992 -4.068103134946401 -14.55396097876699
48 1 7 -0.7891175014663878 -2.759909778745664 -13.500050924534552
49 1 7 -1.699226262176305 -1.5643954029981624 -14.182161208831166
50 2 8 1.6225511691659509 -1.2012424343064796 -3.214094974927717
51 2 8 0.5539775882037575 -1.5253355467441647 -1.8342241353694648
52 2 8 0.32771226840623524 -2.1237532853150074 -0.8000664248781642
53 2 8 0.7777611399686111 -3.127531813330726 -0.4563027014662294
54 2 8 1.0759947185401557 -4.698077715401996 0.03737133436753257
55 2 8 0.07573191555153719 -5.225323008096356 0.09123823556819098
56 2 8 1.163528176811827 -5.8924273764015185 0.35800198291483715
57 2 8 -0.010254003785093065 -5.7158185128118495 1.0011066698004536
58 2 8 0.37670785474887786 -5.310968917356279 2.200196326723663
59 2 8 -0.04696275764212094 -5.37752824742517 3.2364042914667834
60 2 8 -0.4392598888598217 -4.6703278446896705 3.9729910175092362
61 2 8 -1.006014026901025 -3.6178073808110476 5.357095228263062
62 2 8 -1.4258579688747617 -2.768581945374252 4.8004681579213555
1007 28 4 -2.394919364575137 -3.889401804237394 4.680293429781345
64 26 8 -1.555594105974494 -4.092904937990643 1.4197853377955933
65 26 8 -0.7523321551958279 -4.611786161506311 2.7431934465672727
66 26 8 -1.87733370879309 -4.833207032407849 3.2512673008872075
67 26 8 -3.190416731868075 -4.556852122523588 2.434129153406938
68 26 8 -3.49262521096185 -3.3398045469503534 2.4953166345683364
69 26 8 -3.21570946381274 -2.845830505722166 4.328562987241248
70 26 8 -3.1237561109870433 -2.6420783381542527 5.318915222353946
71 26 8 -2.001430213035194 -1.7694102311565727 4.863869681464325
72 26 8 -1.7983948154323537 -0.4237869851064864 5.035278465124801
1009 28 10 -2.1354915755179835 0.18289433686323517 3.4609818092040663
74 26 8 -1.4741446643499072 -0.1942341182443329 2.699738562154186
75 26 8 -2.816291518562691 -1.4661710229229528 2.1888371102630435
76 26 8 -2.8712296849123935 0.35494420801391574 2.2018419999369736
77 26 8 -4.478413019109438 1.5087955500143706 2.3513050693743147
78 26 8 -5.454965144430496 1.6334218090135708 2.683105775436332
79 26 8 -5.381546349243152 0.49422317244928443 2.443407848392856
1017 28 10 -4.033170739549684 0.617700587989838 3.979861976988762
81 26 8 -3.289520730273073 1.9288224670546217 3.7350620078769894
82 26 8 -3.166970520940883 2.219810195150884 2.3216504828284843
83 26 8 -2.8675879846107626 3.4567051733629217 2.551377980669218
84 26 8 -1.4140582855767845 2.7272137765596756 1.449920632782767
85 26 8 -2.282964988817931 2.39758052819145 3.0870990947275136
86 26 7 -1.223085124636566 2.0990882553132186 2.3634345437184963
87 26 7 -0.784653723852618 0.958658575379988 2.870926281216525
88 26 7 -0.11618124090440247 -0.42734831928501144 1.9442412003805707
89 26 7 0.2535317841557979 -1.9226445112424355 1.8108322829264487
90 26 7 1.2541270267272062 -0.9927279250321679 1.2461438409449626
91 26 7 0.9584219571740266 -0.1349443000886783 0.2947901435825363
92 26 7 1.188422758285832 1.026332919351987 0.31139804629120144
93 26 7 -0.6431174035590312 1.0216271484704333 0.802165671338764
94 26 7 -1.8030003506590615 -0.3670245110150361 0.27094153536401605
95 26 7 -0.8745622052474653 0.45666512596042724 -0.3213128163906289
96 26 7 -1.5045122618880333 -1.0134883264273882 -1.0656519249417837
97 26 7 -0.7500833832424967 -1.703343715179121 -0.510555356607664
98 26 7 -1.747186948820998 -2.394017746247241 -0.3802589571471511
99 3 8 -0.9973532810628025 -7.206041035441367 -0.3058828752527372
100 3 8 -2.2216023304757884 -8.260811807925498 0.34440869590179307
101 3 8 -2.098783796149974 -7.978613103882296 1.80659956216436
102 3 8 -2.1119060633468765 -6.836029871199439 0.7799449810693858
103 3 8 -3.2793975256344203 -7.690678500967756 1.5283157526923652
104 3 8 -3.371244424807593 -6.308639704556482 1.8661952415927783
105 3 8 -3.915063734761216 -6.888227721180078 0.3717051991263936
106 3 8 -2.904616071783262 -6.918589886474996 -1.935565286348929
107 3 8 -3.003042683918365 -7.420487360814987 -3.2445435012105666
108 3 8 -3.7628936694046824 -8.128887540167844 -1.8351882550870338
109 3 8 -4.0707581907858765 -9.80723289307751 -1.6053730101961285
110 3 8 -4.303217500930388 -8.844133050253294 -2.3237298543086022
111 3 8 -5.148548639961362 -9.677280922773196 -0.7143663998910313
112 3 8 -5.2539368891365035 -11.393328103745457 0.17635530865849924
113 3 8 -5.914206129814074 -11.211263303839896 1.1233260958886677
114 3 8 -4.357633371185173 -12.033545521517397 -0.05443255080784498
115 3 8 -4.1906175972828015 -11.575405061134346 1.2245878350615813
116 3 8 -3.894128670276378 -10.126318619945517 0.6418834812502243
117 3 8 -3.8499921014765452 -9.181186273366622 1.835436975585642
118 3 8 -4.9048885090422845 -8.697040550924813 0.21292736791106412
119 3 8 -4.962918845556575 -8.953905093210857 1.3726090010970693
120 3 8 -4.309531098296443 -8.128853342410228 2.290439512923119
121 3 8 -4.354401794618734 -6.777890628435761 3.2274581665553397
122 3 8 -4.054118752236367 -6.85588825529645 4.379980491960508
123 3 8 -3.9449867218079833 -8.360985355071444 5.380403499585329
124 3 8 -2.4874024315634022 -8.667020397471719 5.603790071521937
125 3 8 -2.06160997302871 -7.901661451992 4.37010183389407
126 3 8 -2.247490748956688 -9.05652124564162 3.2563123088675527
127 3 8 -2.8111606816577606 -10.374395467532155 3.1535100287656666
128 3 8 -2.6759528025449595 -10.568159175288361 4.592938177742776
129 3 8 -3.4977290356214352 -11.42667929155588 3.196811930977881
130 3 8 -5.069911116143971 -12.365365896958728 2.875049659253895
131 3 8 -5.9127607780945635 -12.708422786448812 3.815366735869721
132 3 8 -6.714044078582807 -13.551385237832939 2.872143870054939
133 3 8 -6.851755113595957 -15.258464032573753 3.3579215585284414
134 3 8 -5.851329787375811 -14.31101853575701 1.2330450683508345
135 3 7 -4.714980268946295 -14.245087965990303 1.760200109573954
136 3 7 -4.606666604850788 -15.759293861480803 1.9374062923476867
137 3 7 -5.297276026049899 -16.39439207075513 0.8546920758205873
138 3 7 -5.899260004831072 -17.70301978778302 0.06408757095463333
139 3 7 -4.737367024314273 -16.946524800942775 -0.9455364606425156
140 3 7 -3.797431912457095 -16.238056551619604 -0.8997107865551383
141 3 7 -3.146456972386184 -16.187750224162254 0.38055848246237
142 3 7 -2.393824468679591 -14.784826680359949 0.7925110432346142
143 3 7 -3.378158666329643 -15.396977980574478 2.2019056888577127
144 3 7 -3.1268639810468666 -13.771636369058573 2.5565947189877303
145 3 7 -4.380556896674894 -14.031085490301773 3.4190175356656156
146 3 7 -3.72338726987742 -12.713395631556578 3.787003893386409
147 3 7 -4.412929325274947 -11.580370509746471 4.506430820500712
148 4 8 0.31013273060720503 11.188780048953753 15.636104055279938
149 4 8 -0.7562653628892404 12.142706248471645 17.216674921825092
150 4 8 -0.4062775535736268 11.36951008010307 18.343240031861885
151 4 8 -1.282342033403468 10.366742632442705 18.273021466943668
152 4 8 -1.096726050180318 9.321799431432774 18.09626907041934
153 4 8 -2.603045505104212 10.168822615465334 16.470010553750267
154 4 8 -1.9220319436428455 11.133451650834038 17.42651386493492
155 4 8 -2.3110779265581916 9.801845149557282 17.416023174464804
156 4 8 -2.980875204289757 8.953621659298152 16.830582159150705
157 4 8 -3.3471381665051325 7.964360869420671 17.22106473810519
158 4 8 -3.698412556631785 7.02735647011304 16.054354124947306
159 4 8 -2.763056640390919 6.971508854919851 16.68811546654964
160 4 8 -2.374655194453683 7.151454598902355 18.78426797350915
161 4 8 -2.2327274675067974 6.194927365360426 19.615521914663535
162 4 8 -2.0080753901304886 6.58914295416212 21.26335607116262
163 4 8 -3.590551550941831 6.6362212718514275 21.243240465352233
164 4 8 -4.498766279072884 6.150985389846095 22.813930759765363
165 4 8 -4.874939513341988 6.566134706388204 21.82786984110585
166 4 8 -5.839018994522002 7.976427055369369 21.428176257557165
167 4 8 -4.6804728777840205 8.580872164204685 23.017305014598907
168 4 8 -5.920080148391899 7.075163159379161 22.577207374482462
169 4 8 -5.0603499122780615 7.592837964581112 23.01240581125802
170 4 8 -5.150302173679707 6.67592909540951 24.70182247973378
171 4 8 -5.984133074258149 4.842991271451351 25.67421956022007
172 4 8 -5.32539935452442 4.448349820554945 24.63662036933809
173 4 8 -3.923169891053071 3.9630056503852154 24.326257462378596
174 4 8 -3.882711235050406 2.678882123732789 25.078674132506688
175 4 8 -3.773601206248017 1.503144839889028 25.53005468382343
176 4 8 -4.834436484918278 -0.26879429939488225 24.383991239913648
177 4 8 -4.0657014912644955 -0.6215034185176661 25.527644679255165
178 4 8 -3.27512138876041 -0.39535221102242374 26.209213988023905
179 4 8 -4.057038269141901 0.44192442024865974 27.02673163481162
180 4 8 -5.1513802938250715 -0.19049667818891097 28.04512720271412
181 4 8 -4.309297830844354 -0.4957643060733498 27.368875321654563
182 4 8 -3.074721621622232 -0.5588001731170154 27.941609938747554
183 4 8 -1.1602735119141876 -0.28240633927212555 27.585829841045186
184 4 7 0.14488860452272054 -0.8279923630341084 26.758977529215553
185 4 7 1.2236033158946484 -1.0442312453741716 27.028537942837946
186 4 7 0.995709216056744 -2.3678371154456515 26.77046104494835
187 4 7 0.16095131928391782 -1.4216279410387633 25.99079426354032
188 4 7 -0.766645087199419 -2.0043016525702213 26.131881803608096
189 4 7 -1.43635518222637 -3.084465127779048 25.509406819168582
190 4 7 -1.9999466136331128 -2.300988038118086 23.567454656041214
191 4 7 -1.2598787791877626 -3.2998167121664927 22.675842766351646
192 4 7 -2.00140383240621 -4.191573494364383 22.045073348514375
193 4 7 -1.1657043843094201 -5.33604605946414 21.424215505910546
194 4 7 -1.689093011776958 -4.873226706338433 22.81453786234089
195 4 7 -2.369080801420775 -6.151405044195746 22.68883415433893
196 4 7 -1.281500156619741 -7.301413054837778 23.22273575912495
197 5 8 -0.08512685936163535 -4.808454283288023 14.256074546915265
198 5 8 -0.6412994099757442 -5.52756509467839 13.090645689061727
199 5 8 -1.0911986735173203 -4.504391759360798 13.70804729345572
200 5 8 0.4650285676950913 -3.781369935526412 14.56306932012299
201 5 8 1.7878178409794079 -4.009495982430278 14.84094835251526
202 5 8 1.4593143534910387 -4.92905969705543 15.33087493046706
203 5 8 2.5957097874793043 -3.880123434799114 15.491586223916334
204 5 8 3.7687835928459297 -4.374627177899662 17.047122189228386
205 5 8 3.180696439033991 -2.916480209257913 17.309601098172966
206 5 8 2.8970279900383042 -0.8151121249574484 16.771030119796663
207 5 8 4.283377958562226 -1.3836449034229017 16.801181547992865
208 5 8 5.169014857636806 -1.6783633508248936 15.781358003559571
209 5 8 4.542340405841608 -2.6086831108781117 15.440961731675545
210 5 8 6.15341761087358 -3.598663388194658 15.413934666421312
211 5 8 6.196260524748583 -2.46067813735038 15.160692245043183
212 5 8 7.489891906110017 -3.221103423430398 14.78326854238789
213 5 8 6.079088429018209 -1.2413391816474937 13.658414645925598
214 5 8 6.782274385337753 -0.06666195706748926 13.17417173998845
215 5 8 6.406172691320401 0.20603763428846092 11.315259897252131
1019 28 10 7.051900082207435 1.0692874155382772 11.556513576000338
217 5 8 6.618255955598964 1.5840748757348995 12.853612425970997
218 5 8 6.530170154303456 1.3153733457188879 10.367308570143416
219 5 8 8.344588250378079 1.5101922150549931 9.83515613304892
220 5 8 7.615603691528481 1.600610482507333 7.907360409244745
221 5 8 8.75834669196182 -0.05536622390462146 7.453482862336796
222 5 8 7.374570216618404 -0.8385673634152632 8.895030463461422
223 5 8 6.797168523699928 -0.04551483303848998 8.347163414020322
224 5 8 6.829883986231907 -0.5395711760630028 7.074347823744043
225 5 8 7.521623708612183 0.4520769041702587 6.577968942368648
226 5 8 8.363510760653591 0.6569645804357898 5.178856699541902
227 5 8 7.525175696945394 1.9656565280281164 4.033867880915705
228 5 8 8.586102067987088 2.634546643368141 3.4559639773260606
229 5 8 8.517803303481749 1.4014812118937314 3.7264127672080707
230 5 8 9.030377112353483 1.3752882099060613 4.995021160433443
231 5 8 8.806692069656352 -0.7001272985347201 4.084746746239912
232 5 8 7.706645350417976 -0.9194060805769733 2.004269192443028
233 5 7 9.49908085751388 -1.0313212355937174 2.6614710065669307
234 5 7 9.635729234851523 -2.670432936533082 2.0262772677606407
235 5 7 8.148218407239654 -3.2215944027647834 1.7288542327713035
236 5 7 8.583510162387492 -5.118935969218467 1.0614994168646532
237 5 7 9.276455072371807 -4.048677735932386 1.7472417897700205
238 5 7 7.808077176260943 -3.999275176410335 2.459111652009631
239 5 7 6.266746568154905 -4.625986096126585 1.6528039739044529
240 5 7 6.1040542292853415 -3.400563855467791 1.8370010586563756
241 5 7 5.944959451251476 -2.4742484427629057 2.34087547152417
242 5 7 5.40371307616048 -3.480830170640322 3.6265914460837965
243 5 7 6.965702677904102 -3.3857389454188977 4.71250316329697
244 5 7 6.943501464237444 -2.147210088942344 3.8723658906940543
245 5 7 5.9896048249916225 -2.3633816881188103 3.711841949251041
246 6 8 -1.049101828180266 2.2809928776101156 4.793602090075974
247 6 8 -1.8254762700054539 3.4960629772542466 4.763722012859588
248 6 8 -2.9497161060467567 2.6864286358102496 4.8717518282203915
249 6 8 -3.45540031862814 3.6204125179589024 3.4043736721655837
250 6 8 -2.4917732186635986 5.232473942465058 3.2212219285559907
251 6 8 -1.6290547895442287 4.627758356246587 4.145015145157773
252 6 8 -1.0597410410468406 4.015128126387991 3.5039147248175193
253 6 8 0.14207287831097243 4.5705689726205305 4.717310365768135
254 6 8 -0.7293959935254749 4.391769012037557 6.592112033623815
255 6 8 -2.170019185322212 3.252603307589591 6.97412173689996
256 6 8 -2.8550674761906 4.296470039758085 6.743097741077927
257 6 8 -3.01205349593264 5.949261468853327 6.848302761903808
258 6 8 -2.7519009078032273 6.233516209506023 8.133389059982779
259 6 8 -3.933250411682105 5.744763015699601 7.400097086587882
260 6 8 -5.5237236230185855 5.6642679979164745 8.644397488561303
261 6 8 -3.8249082217158334 5.25031436756503 8.604635697471863
262 6 8 -3.4681818172029244 4.903132542760422 9.702227131108023
263 6 8 -2.3323680837279834 3.867011931347345 10.264197577619868
264 6 8 -2.5866330807433955 3.7048320968810704 9.168761837372317
265 6 8 -2.0905849866580497 1.5115261114838847 9.590213082506747
266 6 8 -1.7779440230791514 1.5892729853304568 10.598821381117222
267 6 8 -2.658667546770545 1.0048508688323239 11.13361510154291
268 6 8 -3.461546110000177 0.5661890424474656 11.87408017966095
269 6 8 -3.195061433800399 0.14333075489704633 10.32865895598791
270 6 8 -3.122332870744316 -0.38321918222195545 12.222379655091872
271 6 8 -3.2853836245308905 -1.1533013098658036 13.238155674420874
272 6 8 -3.9919746071615765 -2.9555013663909313 12.122294726777417
273 6 8 -4.378445200310909 -3.296162423940792 13.301992590861992
274 6 8 -3.65520059215237 -3.9060581855611423 11.73466683108634
275 6 8 -3.21740678478825 -3.4861121511527253 9.705443650663236
276 6 8 -4.472166962365202 -2.859067638925717 9.470646417400904
277 6 8 -3.300940871365955 -3.1658919861223556 8.255719851196126
1012 28 10 -3.784105264998564 -2.676298471690326 7.410146651755664
279 6 8 -5.03884391029693 -1.0532314541840733 7.429709551303626
280 6 8 -4.885729562669833 -2.1019546219823315 7.1213525312592445
281 6 8 -5.577519126627791 -2.9622989920747615 8.082484115180709
282 6 7 -5.095652814356283 -3.887080585772102 7.074243438204496
283 6 7 -4.1505147815746275 -4.36493456544365 7.843267581646385
284 6 7 -5.4659477793356155 -3.503021448187014 6.13853525455237
285 6 7 -6.6745873173795545 -3.1197347018604678 6.36846233214578
286 6 7 -7.361242362613223 -4.216751842105303 7.1600351637547455
287 6 7 -6.6101648318020425 -5.535404826139609 6.488773771311722
288 6 7 -6.347038856658748 -4.3360752745813285 4.803740638316468
289 6 7 -7.468842821631964 -5.750153776742345 5.6574707101046835
290 6 7 -9.066294346365776 -6.514898886981474 6.26907738601351
291 6 7 -8.889609234899138 -4.697470558452392 4.441721620228648
292 6 7 -9.086001681997448 -5.137101146611334 6.101461971787968
293 6 7 -7.84267579267102 -4.459057788667253 5.210860115844434
294 6 7 -8.688259982684082 -3.726511603657333 4.1727952607897745
295 7 8 3.3438891710600713 13.360795475418687 6.36921720132529
296 7 8 4.163529742841811 13.243883006881848 7.85456651202389
297 7 8 3.4860694401031163 13.392789398547324 8.926241470396468
298 7 8 2.3785376916053638 13.422943570207808 8.3942963750515
299 7 8 1.3831881229864076 11.85810252642064 7.615256585865156
300 7 8 0.9943376434956168 13.054154840759665 7.3256148685906535
301 7 8 0.435277015577525 13.825947416064725 8.297609683386954
302 7 8 1.5712512480193468 14.162608447847067 10.272293230118633
303 7 8 0.82727628655637 14.437878146299802 11.261253839391014
304 7 8 -0.24402384074045538 14.775869118041399 11.148644479994529
305 7 8 1.4169912711741124 13.567721634123343 11.519765668966302
306 7 8 1.1251074162478987 11.833117264067477 11.923425431511268
307 7 8 1.295599714666797 10.909261385740468 11.41929556131243
308 7 8 2.8599068374547496 10.254689349383638 11.616292687845428
309 7 8 3.508488111559701 10.253856801090569 10.079909129141825
310 7 8 4.004383407982325 9.617493288421041 8.933764000803974
311 7 8 5.042582749942251 10.05946254062845 7.70916779409676
1011 28 10 4.357144832841532 8.806212664191785 8.248018185828057
313 7 8 4.308918279861175 8.135353564862738 9.270737113604678
314 7 8 3.8523954860781 7.610901791769256 7.685844482268906
315 7 8 3.4918769652997783 7.014626614127399 8.532785542120058
316 7 8 3.491323493987077 6.3903167986487235 9.699804126441526
317 7 8 2.9580434861124254 5.563711568385884 8.527220690478046
318 7 8 1.9707417000851055 4.36475961398126 7.45448393670726
319 7 8 1.7355021294248423 3.57147404887607 6.432084769087444
320 7 8 2.3732421754259456 2.4744640687475727 5.597948033221636
321 7 8 2.6496414619413513 1.5359711527967492 5.698864006421466
322 7 8 0.965529918733079 1.3533191609480657 6.686693120934181
323 7 8 0.1582881920317149 1.8957160538985987 5.924890073902353
324 7 8 1.2112908783460097 2.157165096164358 5.945326111975067
325 7 8 0.2740990864767087 2.864309268760343 7.748495900071708
326 7 8 1.0094253266310185 4.483940742627476 9.042171704810277
327 7 8 0.6799981265121421 4.960079717310858 10.130596542515242
328 7 8 -0.5333011301620736 3.9168416453964148 9.563020974555858
329 7 8 -0.5486865607345247 2.6327569574184015 9.647357941888032
330 7 8 0.9468501611267477 2.627106502776013 10.07993430227678
331 7 7 0.011852774118429372 2.056019823537612 10.554908419521617
332 7 7 0.25922455236695746 1.4097672563158228 9.551572724146748
333 7 7 -0.8544798528268828 0.8756922407453197 10.684705315184077
334 7 7 -0.02530542417563286 1.2701684916705456 11.681889594703192
335 7 7 0.06566677718167728 2.175144622150241 12.981952694375817
336 7 7 1.692633649788543 2.0793116344579556 13.430474736144458
337 7 7 0.5678444659164675 3.2873174262772067 13.78090447367015
338 7 7 1.4707157722703776 4.6668794101842295 11.99333406228996
339 7 7 0.6709458602622347 5.169472482723712 13.351429087907468
340 7 7 1.015296220701562 4.647146617421123 14.571014747897486
341 7 7 1.3349135759955089 5.043084712416741 16.118577946244056
342 7 7 2.6708777998549613 5.85643874890229 16.807624823437244
343 7 7 2.500145891262571 4.484789466808012 17.081901335569874
344 8 8 6.599802559551321 19.03858252460477 -9.725365933262013
345 8 8 5.811730116976473 18.159615556122485 -9.21147156503785
346 8 8 6.332886112995537 17.303904563864528 -8.22118022136559
347 8 8 5.035220902332375 16.955583300727305 -7.745969044267271
348 8 8 6.947246228057489 17.915809058068135 -8.672646383260668
349 8 8 8.321346336186796 17.15833819784874 -9.172573359367464
350 8 8 7.972510090901506 16.067323728025766 -8.813836034675704
351 8 8 6.486821036574276 15.590184501294667 -9.852101323013525
352 8 8 6.751466351611551 16.69100826466009 -10.67450080349089
353 8 8 6.116977263095299 15.868015218754135 -11.342989710238783
354 8 8 7.076111101786813 15.102226518115113 -12.075672445891849
355 8 8 7.906629773841493 13.913210136191719 -11.166371347630585
356 8 8 7.086093771223803 14.08474765565328 -12.362975735028487
357 8 8 7.611839800586568 13.199255109871995 -12.0772838669802
358 8 8 9.134947808964768 12.871639493731614 -11.522842065996848
359 8 8 9.614334584917165 11.198419346816857 -10.661522150009924
360 8 8 10.577508234092715 10.940496157972248 -10.983053415594652
361 8 8 10.414314447118509 9.51323736712383 -12.056517769530851
362 8 8 12.087145824802835 9.432471625278666 -11.950960509657522
363 8 8 11.23828572639543 9.269417894817103 -12.854986459950492
364 8 8 12.184600131335484 7.43238376173019 -13.150660600743738
365 8 8 10.523888929187121 6.448129812356462 -12.852781228009531
366 8 8 9.970385328667925 5.181830241299039 -12.690171828029582
367 8 8 8.62715891799507 4.160095356387943 -13.149062057902698
368 8 8 7.97709372296501 3.6914874672990226 -14.623169674602343
369 8 8 7.294397680424944 5.0384860505188245 -13.85217505939204
370 8 8 8.004046971025517 4.917120854794114 -15.745895887627556
371 8 8 9.636780018846157 5.287103662083945 -17.056157683782793
372 8 8 10.32393033843671 4.664813359200416 -16.513432181326543
373 8 8 11.262374172437664 4.506325525767846 -15.77451365908024
374 8 8 12.452536589370872 3.880958053156342 -16.326276643903686
375 8 8 12.410747645227566 2.393509100216351 -17.205962174608498
376 8 8 12.30311543515407 2.7583930123177582 -18.22049558448556
377 8 8 11.976271606449826 4.187413587172262 -18.79900030595414
378 8 8 12.156799267776965 3.1582005266127995 -19.820318223117763
379 8 8 12.543084450679476 1.7962176024060856 -19.238473401497416
380 8 7 13.929800656322582 1.366839336797945 -19.149923546257643
381 8 7 13.681161441527934 -0.1278182355246727 -18.205168242047453
382 8 7 11.786962497892667 -0.920686091061428 -18.456599164514895
383 8 7 12.714935524728268 -0.5377436761311871 -19.939817176175858
384 8 7 14.18412109101939 -0.8524817544013126 -20.399696239735775
385 8 7 13.900339359400892 -0.988938172717598 -21.551688837163994
386 8 7 14.56009588423083 -0.642664438855881 -22.88053362371511
387 8 7 15.56780729743997 0.6262559562433025 -22.36949364339616
388 8 7 15.476187634330039 0.05445204243838431 -20.92240549960805
389 8 7 16.007034082303882 -1.3977786360317686 -21.46162445448922
390 8 7 17.559272871831578 -0.6490686981375391 -21.333662775821573
391 8 7 17.01472807239689 0.5717233713765397 -20.08829144032012
392 8 7 16.110439809253915 1.368049962355927 -19.340768640126644
393 9 8 -4.950532523850309 -4.761704174440885 -16.19556982733059
394 9 8 -4.844787453209123 -5.027517331364742 -14.485782140493114
395 9 8 -6.821012529168604 -3.9583196711618913 -13.966606427626694
396 9 8 -5.769613746559331 -3.795498765748064 -14.364255268680235
397 9 8 -6.645420859864405 -2.429638956743152 -14.318041047718495
398 9 8 -8.434879169283132 -3.203753373595494 -14.51257369214728
399 9 8 -8.33126296967529 -2.1688139353822224 -13.090255569784087
400 9 8 -7.334785860626395 -1.9039116445103805 -13.601995115028847
401 9 8 -6.586833155278405 -1.3032125823759728 -12.551136328137426
402 9 8 -6.6319439659964186 -0.25112773144515765 -13.017142181960132
403 9 8 -4.9535063694028905 -0.4477682975956049 -12.915449767251639
404 9 8 -5.1018381287449 0.10373680096779164 -11.55103428086333
405 9 8 -5.619477777937656 1.3545669813633858 -12.041427167542352
406 9 8 -6.668076300755766 0.5632297356608517 -11.297314037898575
407 9 8 -6.57890223145663 1.9960783421368575 -11.040547305859887
408 9 8 -7.685142185090769 1.9832771117628298 -9.570116687832712
1010 28 10 -5.63293154387034 1.5030512501506341 -8.67929968034974
1014 28 10 -6.44834756914157 1.3649856873315587 -7.891803947340547
1016 28 10 -4.504125897239776 1.1930895487900788 -8.116564629197667
412 9 8 -4.3038623145084465 -0.12224594187031064 -8.464648691058883
413 9 8 -4.211169679653296 -1.3598397041409127 -8.467115496091221
414 9 8 -4.827740846156438 -1.7155483146278687 -7.225654085464265
415 9 8 -6.085614743084231 -1.0332054333786354 -7.902660719193522
416 9 8 -6.822978858490416 -0.5756892851822554 -6.676009076477778
417 9 8 -6.348127624918919 0.2982397545838651 -6.562185671271055
418 9 8 -7.663186196642153 0.1328892399574827 -6.769976841865786
419 9 8 -8.50154131877016 -0.11908105817551516 -6.215183155205522
420 9 8 -9.604447314429802 -0.9101925124044835 -5.256206646796261
421 9 8 -10.632795203667373 -1.3783759234413562 -5.05312898303632
422 9 8 -11.924341563165557 -1.4308856576420323 -5.575075704461458
423 9 8 -10.776586409531694 -3.1484204678736423 -5.16060342326642
424 9 8 -10.919210580940701 -3.9992474182021844 -6.315449609515695
425 9 8 -11.249057333322114 -4.2683428612177154 -7.414498340934492
426 9 8 -11.371361447711934 -5.2924701446703 -7.052202899011469
427 9 8 -11.612193474557364 -6.253250140243075 -8.040376217947166
428 9 8 -12.505767295158588 -5.501575435468558 -7.872220550250979
429 9 7 -13.017277401051462 -6.06440665968451 -8.623161493720886
430 9 7 -13.215342793303753 -4.610988011550091 -8.52515811742882
431 9 7 -13.362839583773331 -5.302706711361429 -7.026660579921453
432 9 7 -14.352517646588474 -5.1482676726480445 -5.82151564509002
433 9 7 -14.97863486462607 -6.975142575435299 -5.705838944263069
434 9 7 -15.450820760405993 -8.15376898208276 -5.062545617994309
435 9 7 -14.386190971040275 -8.14784877505606 -5.855210033908044
436 9 7 -15.297694196636067 -7.41754820587065 -6.999463409270397
437 9 7 -14.729888323903197 -7.307237546435037 -8.315122957274566
438 9 7 -16.045869933010113 -7.443183707014528 -7.860173325611075
439 9 7 -17.266070874163866 -7.702331372033677 -7.184772993662161
440 9 7 -16.15065480813617 -7.867748067580105 -6.557639102561786
441 9 7 -16.75374923836957 -6.895337455447446 -5.7445592208777
442 10 8 0.8843062299722871 15.839697857749607 -0.7865410779650039
443 10 8 -0.30661155345384344 16.47291829919772 0.07006003173640568
444 10 8 0.03459819770959174 16.175502124794804 -1.5630339655528844
445 10 8 -2.0260436214923105 16.705374277035435 -0.4159031208839099
446 10 8 -2.2422283574353106 15.205918048254807 -0.6731320334917354
447 10 8 -3.187509967189174 14.503400595994213 -1.9099047915471272
448 10 8 -3.3442702246925555 14.957224604692279 -0.6840564732988637
449 10 8 -2.767932470498367 13.43324185640764 -0.7827138560576502
450 10 8 -2.971345926418232 11.90273476993416 -1.260486358780634
451 10 8 -2.306238660026679 12.49020589607045 -2.0096543652939562
452 10 8 -2.671810068843668 11.43829681313464 -3.333855457320274
453 10 8 -2.63248037310269 10.560067480795572 -2.310791627684038
454 10 8 -4.263221886662081 10.846408222837434 -1.7357733970767952
455 10 8 -2.974945983263271 9.937459398104812 -0.7426885558953106
1015 28 10 -2.1325291245411977 9.414427733478659 -0.31205576615127323
457 10 8 -2.2740259692159905 9.527523209089756 -2.3328155325668583
458 10 8 -1.3250772162295923 9.94077491675764 -2.8323272207098498
1018 28 10 0.07443469610581038 9.488071024444485 -2.817151721137396