# Generated from readdy-to-lammps

1005 atoms
652 bonds

10 atom types
1 bond types

-30.0 30.0 xlo xhi
-30.0 30.0 ylo yhi
-30.0 30.0 zlo zhi

Masses

1 1.0
2 1.0
3 1.0
4 1.0
5 1.0
6 1.0
7 1.0
8 1.0
9 1.0
10 1.0

Atoms

1 1 8 -16.322711438889055 -8.750347070047843 -12.076067386352774
2 1 8 -15.490261000773422 -9.81220430656434 -12.38196839155293
3 1 8 -14.252369457913527 -10.234032558159672 -12.42302720831724
4 1 8 -13.432225804902503 -9.09347085471409 -13.399697099264104
5 1 8 -12.287286365644713 -8.880469821378771 -14.204733287736465
6 1 8 -11.010406139882448 -7.424883486329872 -15.071846147336368
7 1 8 -11.801461305122114 -6.461960106667396 -14.16467724854507
8 1 8 -12.676319867164617 -5.66788107319084 -12.46696189366321
9 1 8 -11.515868340221852 -5.961275279862453 -11.607209074313724
10 1 8 -11.372234200797408 -4.73316379979489 -12.017705599466419
11 1 8 -10.619521946094496 -5.2802365437213545 -13.094787231432246
12 1 8 -9.950028320905226 -4.611936508313161 -12.338701848684641
13 1 8 -9.07945991830631 -5.125050632481771 -12.361096937879188
14 1 8 -8.00975681665238 -5.17078494566532 -13.648257878441154
15 1 8 -8.327790648836382 -6.543583137854972 -12.461730105845046
16 1 8 -7.336881164696643 -6.455328457816285 -11.409348617580847
17 1 8 -6.504186166505264 -7.030405909423404 -10.615848080348824
18 1 8 -6.207646548235111 -7.656801072000785 -9.481950807560057
19 1 8 -6.981924796415332 -8.090045786270204 -8.680941763148722
20 1 8 -8.051653091604544 -6.839784603122398 -8.964786235704265
21 1 8 -9.023603911145111 -7.0093721910929085 -7.874705939175203
22 1 8 -8.380480568825533 -8.981964312102352 -7.485653503827081
23 1 8 -8.56920034442309 -10.09847157123366 -6.955844531872784
24 1 8 -8.041331394486585 -10.647594604228747 -7.754526053505884
25 1 8 -7.097270938300802 -10.404435068678653 -7.889578385040283
26 1 8 -5.3391388027442535 -10.097276086327737 -8.017576307550643
27 1 8 -4.117599098868791 -9.690259255707915 -7.244358890503055
28 1 8 -3.9667221626587237 -8.08663537993013 -7.407876939542009
29 1 8 -4.262085396020014 -7.425421157203967 -8.681691110112261
30 1 8 -3.9403620134379778 -6.889472047743162 -9.574396588868181
31 1 8 -4.623275810234677 -7.914209161551983 -10.342101825626942
32 1 8 -3.469107731171987 -8.720430948396174 -11.21655955600144
33 1 8 -2.772700959754394 -7.77953784602779 -10.604352926572377
34 1 8 -2.080023692221075 -7.340027459450401 -9.375853173615381
35 1 8 -1.084660509689859 -8.582944100916906 -11.426590079072044
36 1 8 -1.3487069573688155 -8.261551602805564 -12.963955145041457
37 1 7 0.5581210006743209 -8.267585637739069 -12.421772189827495
38 1 7 -0.032356010649285005 -8.110796546211104 -11.35765325911738
39 1 7 -1.3850474616457302 -7.847750856555975 -10.657985056137887
40 1 7 -2.7209348268388847 -8.142063679822051 -11.737816107135615
41 1 7 -4.700412307304506 -7.728588642459347 -12.444490806922563
42 1 7 -3.792651320067374 -6.782296985539402 -12.318717484788024
43 1 7 -4.496719298150629 -6.877455430598377 -13.38319079952841
44 1 7 -4.939868879964343 -5.2113947994864525 -13.634538244628532
45 1 7 -3.6570677256778787 -4.206499754447194 -13.343807124523144
46 1 7 -2.9134865032206987 -4.7268198965016595 -12.4374884973686
47 1 7 -1.7783738839283127 -3.5058054197954047 -13.087982426556373
48 1 7 -1.3325881283236207 -2.7332958784836006 -12.21245542737608
49 1 7 -0.507612433831044 -3.435200464000604 -11.254421196290247
1050 59 10 -0.3707335956050152 -2.0573909415468212 -0.4645626921648973
51 59 5 0.8484162100994893 -1.962360968225932 -4.548898973564422
1046 59 5 3.4776750120238393 -4.423026141311537 -2.1617856583188058
53 59 5 -0.926571397246404 -3.108302961614757 -2.0625805484800233
1042 59 5 0.41081653149296277 -5.46285103173277 -0.4839819479724007
55 51 8 3.653839997591998 -7.278287362470195 -0.7317371335200419
56 51 8 2.599621929848207 -6.405153056293325 -0.06554236175545454
57 51 8 1.4679877448324599 -6.811888698207484 0.7131274868354727
58 51 8 2.0477841942952417 -7.552463609661236 1.7054042521538368
59 51 8 1.1535690376248129 -7.169929763668341 2.609568883104062
60 51 8 0.33937209128946616 -6.372292073368714 3.0949625216031147
61 51 8 0.23851395630631075 -5.413823724393029 3.421230289781408
62 51 8 0.8683507753190947 -4.953072927831027 4.801835536435491
1007 59 4 0.7487804553602623 -7.08331501814002 6.108002113674663
64 27 8 0.4469520970361651 -3.3449345761517257 2.2148863317612113
65 27 8 -0.6994751462963342 -4.099349653490414 1.897032421334988
66 27 8 -1.479178654608837 -5.059663943516502 1.9713988276828
67 27 8 -2.7394158746022628 -5.427833368980276 2.8324797972735225
68 27 8 -2.0412558758215282 -5.2384436852533405 4.166808962819868
69 27 8 -1.4601834109533796 -3.8328958910851543 4.336644959937312
70 27 8 -1.766074257610096 -4.565126896063128 5.84398456355892
1036 59 4 0.6241214411300507 -3.099091968708836 3.3888980164450153
72 59 5 -0.43559477242927785 -2.146856869756406 4.218358741206918
1009 59 4 -1.9715577860639129 0.48635159949111884 6.6697415387723
74 52 8 -2.2090758292087966 0.5678118902384768 0.5927674533899889
75 52 8 -2.8915127753834478 -0.7142160964381324 0.7639698617662584
76 52 8 -3.3748245893913875 0.1969727479278885 1.0058967304837678
77 52 8 -2.874209948556197 0.2867825814408905 2.414192776317921
78 52 8 -3.6987973247288757 -0.33663473303229946 2.1716462962258807
1037 59 4 -4.983971531630476 1.2857025830149122 6.557777526064818
1017 59 5 -4.789075418804852 1.2511907837634695 3.26418280397152
81 55 8 -3.6219692791937246 3.620633716120774 3.7794791140833497
82 55 8 -2.943261509352496 3.121948212304596 2.668249433076899
83 55 8 -1.7179668383406235 3.0041721461966318 2.0442915004158815
84 55 8 -0.21303810313120702 2.3773376627733773 1.5203847509112176
85 55 8 0.08485833254804769 1.6984796327083438 2.3461811877748997
86 55 7 1.2661000885432607 2.070409283381917 3.4485325925532884
87 55 7 1.6845690156851638 0.46558269457801604 2.41727099623097
88 55 7 1.8427794261137171 -1.037650084675461 2.674452627484312
89 55 7 1.8824245341930497 -0.061130333560703076 1.4779642270352227
90 55 7 2.5424935507504376 -1.3177427964861133 1.5026843116164281
91 55 7 1.1035175334787994 -0.9980312487466748 0.3897105145464004
92 55 7 0.4179224393335802 -2.444387061908497 0.6904369376426129
1044 59 4 0.17039518173717158 -0.7389833606562064 -0.7919411934118855
94 54 7 -0.058351273967388845 1.430431100037987 -0.8546772458062968
95 54 7 -0.7494893548314338 0.3472226066771792 -1.4578022324120568
96 54 7 -1.460291679915751 -0.6112783109188258 -1.5303129014432382
97 54 7 -2.1650439885474135 -1.225219793652027 -0.3885649914063146
98 54 7 -1.9336320160395304 -3.059039188245754 -0.3249093625132335
99 3 8 1.2590242265296752 -8.231738761953762 2.147189724864762
100 3 8 1.0398086199602576 -9.309426904049918 1.260507899161579
101 3 8 0.5671848649473544 -8.951288988776636 2.4417625862628354
102 3 8 -0.03071011203076902 -7.211506197245573 1.4165743597740317
103 3 8 -1.7549915227427313 -7.773176410099438 1.3117369375577133
104 3 8 -1.3534460427891002 -7.126466836347109 0.6739491859654302
105 3 8 -1.2054066486561317 -8.920452721428171 -0.5207719385672276
106 3 8 -2.752926176169617 -8.514710675471052 -1.8299966846548286
107 3 8 -3.5757390002274314 -8.193470659365182 -0.939237301954225
108 3 8 -3.7220186427010065 -9.185765312590977 -1.8095169449682331
109 3 8 -4.95548488957073 -9.696107108694676 -1.9210253669433304
110 3 8 -4.938051847863728 -9.082666493596694 -0.8614169654223932
111 3 8 -4.8810120843409335 -7.815272150739404 0.03438325392890105
112 3 8 -5.733192938114114 -9.244778552353479 -0.2107092109510874
113 3 8 -5.807849570385283 -9.800648306994919 0.7356992026581815
1024 59 5 -3.794653429396235 -12.141747634726602 -0.7397357181486688
115 42 8 -4.897564013214815 -10.628118306773308 1.545763723463763
116 42 8 -6.170656903805146 -10.673864056556106 1.3581317327037954
117 42 8 -5.486037564483036 -9.860527544556875 1.8806200812727842
118 42 8 -4.421936876974368 -9.406968646149585 1.285781847656806
119 42 8 -5.720127100137077 -8.585158444205096 1.472865672140308
120 42 8 -6.511016057375566 -7.413744559129076 2.792462778102689
121 42 8 -5.222184224454951 -8.920435543526095 2.4771198887250656
122 42 8 -5.163331693355912 -8.677201232555118 4.198203687419181
123 42 8 -4.171370116014645 -8.221291914058872 3.532113827979271
124 42 8 -4.203760505712433 -9.198580067695639 3.114404422667809
125 42 8 -3.764057431575439 -7.8782412346838395 2.077996112448361
126 42 8 -3.12935221628309 -9.027863447628578 2.887484681264298
127 42 8 -3.9249487878924776 -10.697846359677055 2.7338706953978718
128 42 8 -3.9933023822241065 -11.125320136623817 3.7610532016828198
129 42 8 -4.45016359940828 -11.941323229336641 4.277607092275662
130 42 8 -4.954646331334459 -12.798718435270725 3.9491914575051488
131 42 8 -6.227649679813134 -13.731226245987559 3.434098516535977
132 42 8 -7.321864804563849 -12.845863189049954 3.410079032051548
133 42 8 -8.156196702402662 -12.152666546138203 2.7446640686161854
134 42 8 -9.218545559487504 -12.796082252465922 1.9707719079232693
1025 59 5 -6.2454853453505335 -15.860499160106416 -5.3730496303937985
136 39 7 -6.048122267597327 -14.593250686749794 -0.13610760966974736
137 39 7 -6.523276841430202 -15.781075780424725 -0.32192195322582723
138 39 7 -5.671441684214347 -16.565803759395045 -0.03107740996016227
139 39 7 -4.87638288572979 -17.29481677641818 0.1826358161520322
140 39 7 -2.9357394275401516 -16.0012092435546 -0.14645615618033986
141 39 7 -1.9361553834169496 -15.110000964751476 0.09222826448435971
142 39 7 -1.314181920662567 -15.32684419310831 1.487433489675819
143 39 7 -1.958848601048733 -14.135454939241415 2.2431954653969552
144 39 7 -2.619201567758003 -12.860749070906438 1.6553376957750445
145 39 7 -4.129991213755755 -14.580925189580629 1.8168873427917895
146 39 7 -4.669900044062258 -13.413985930465893 2.4895391920396537
147 39 7 -5.7011610377648925 -11.805361170624806 2.793272305445962
148 4 8 -1.4459461600351935 12.680516232104422 18.625581349764015
149 4 8 -0.7556680101475547 11.561816978803796 17.749009011533637
150 4 8 -0.9900277561645515 11.0339529321045 18.89408750616046
151 4 8 -0.07845771324606544 10.748686287050491 20.143443225602372
152 4 8 0.22062810759122115 9.48423476447127 18.743241811679106
153 4 8 -0.17088201120965502 9.038653008249218 17.719147832013682
154 4 8 -1.2811264008088854 8.731165555725209 19.11293068987288
155 4 8 -2.4209565650860303 8.862192505451008 17.8981360487899
156 4 8 -3.623909321002445 8.614281363073443 18.82742478784069
157 4 8 -3.5691381472907793 7.6673980023813195 19.922823733546544
158 4 8 -3.234220155487998 7.535776001791885 17.88862139083998
159 4 8 -2.6653485677432482 7.315266645801695 18.78358506787901
160 4 8 -2.863063526241166 5.875664216850523 19.36734298840304
161 4 8 -1.6768220229073776 5.603077687522337 19.951367348672072
162 4 8 -2.595842639894233 4.682372564305597 19.958757986901272
163 4 8 -4.0000740951875935 4.764040533858238 19.41980817428484
164 4 8 -4.891710123642678 4.262901428376274 20.196844246807746
165 4 8 -4.177252989115822 5.268743035112286 20.538613469222103
1031 59 10 -3.874392109688057 7.0304967622644 21.940062898053345
167 4 8 -3.475752513027927 6.203600762362784 22.434549778205394
1043 59 10 -4.273763043198196 7.086777977177247 23.497984319792526
169 4 8 -4.535002202772943 5.7148231402222365 23.480317027198506
170 4 8 -5.300613216816646 5.529801585237724 22.54931170214897
171 4 8 -5.375026722894063 4.3240381804272365 24.147565862643543
172 4 8 -5.365313299241554 3.0600485751601725 24.858044536212017
173 4 8 -4.379478823691329 1.8739883050368131 25.23310078067961
174 4 8 -3.7728233355640306 0.453945397506528 25.89539394025759
175 4 8 -2.9269854930918386 0.5832585582105095 25.387126904922543
176 4 8 -3.6237042455170547 -1.0062504858957528 24.548869110906537
177 4 8 -4.037464102114675 -1.1008731177146238 26.03011615600193
178 4 8 -2.9582462193313805 -0.6070868782565089 25.464228520667795
179 4 8 -2.6674825075321236 -0.7904230267184889 26.732838472187265
180 4 8 -2.8675363875474815 -1.9398820310782277 28.117649802641985
181 4 8 -1.3113972133903646 -2.1681396918712386 28.276446911901402
182 4 8 -2.1312076689891994 -1.860749674980307 29.04795597383012
183 4 8 -0.8431942026460093 -2.3333321254672637 29.19746697295946
184 4 7 0.06770063617766509 -1.1506803825584957 28.60110049863838
1028 59 9 1.448138750094341 -0.5323136906638625 27.610888796446773
1023 59 9 2.263138705858226 -0.12184144915360562 26.730717369809103
187 4 7 0.8850432175229794 -1.279347735256306 25.91631698985286
188 4 7 0.5931234461459982 -1.0409560245139513 24.97627996197859
189 4 7 -0.909773671436923 -1.3405499992564294 24.681495587868337
190 4 7 -2.808232700481331 -2.12604135437308 24.358014920063635
191 4 7 -2.251007326797138 -3.1296251549522878 25.21842683085959
192 4 7 -2.5407241512174257 -4.674337410154806 24.867753447498647
193 4 7 -2.8659764598496316 -5.599818598784805 23.134479861890142
194 4 7 -3.3063556887512395 -6.912819006427973 23.28976298302454
195 4 7 -2.142636402496877 -7.19909349588181 23.66885109696385
196 4 7 -1.5989919131430983 -5.8572863134920565 22.770844012150924
197 5 8 3.3446789218821227 -4.041029739068281 13.01642151633257
198 5 8 2.0082530821910005 -3.5827847238136865 11.869151491190364
199 5 8 0.32498918945025307 -4.768658583078617 12.3974347594732
200 5 8 1.3613674788462193 -4.2534161381783635 12.648631247615942
201 5 8 1.1273504556257097 -3.311352248466752 13.508878618463845
202 5 8 1.675298177855588 -2.1576922827039735 14.665940456502641
203 5 8 1.29162367668306 -2.6215808136067618 15.688249633218398
204 5 8 1.7206164833969697 -3.265899781850033 16.283014370295863
205 5 8 2.858897208109157 -2.913528038381613 17.33321224323697
206 5 8 4.010425461529844 -2.5328863052279265 16.8264935806446
207 5 8 4.60812319478985 -2.8088932554560744 17.83395443809349
1056 59 10 5.810031327511974 -3.5387672356467776 17.36027957100749
209 5 8 4.9541627995507245 -3.183554528636222 16.077228367040433
210 5 8 4.310728499838861 -3.6367680559351117 14.339547920177335
211 5 8 5.241277641576655 -2.9567901112268054 14.194602908357876
212 5 8 5.373444543337033 -2.055845142470384 13.447711103211056
213 5 8 6.205960813944509 -2.8241573377990146 13.124664117653912
214 5 8 6.975981440991317 -1.5941372525315232 13.685267914342237
215 5 8 5.610128330276802 -0.6783569267176229 14.51547550092426
1019 59 4 5.941601144870961 1.809023587717986 12.406723875008398
217 29 8 6.277061863268085 1.0638301007521036 9.579389155443154
218 29 8 6.378905774314831 -0.5975332964214264 8.98235337389478
219 29 8 7.473353708760892 0.2490846610571943 9.688670405279657
220 29 8 8.300481377229483 -0.2951369976955889 9.146993761298592
221 29 8 8.873813289435407 -1.3141513152843964 9.832003733832527
222 29 8 7.750015393872999 -1.3044073555967737 8.966957826548144
223 29 8 7.905275318843462 -0.5359650155441971 7.961188320239648
224 29 8 7.13452869436733 0.5228487710614056 6.800059855397034
225 29 8 7.102165943742168 2.2376002513832014 6.5931772825577335
226 29 8 6.427922937585229 0.9981048305062353 5.573877128639773
227 29 8 6.447387037354908 -0.11702630631831597 5.538815332266057
228 29 8 6.011663212648842 0.7355656344111207 4.505798323048265
229 29 8 6.396335930467916 2.269827994451442 5.137124201131626
1054 59 10 7.982813332842194 1.4431313899025264 4.82475838068913
231 29 8 9.461266628383406 0.40941484126164396 5.432358148939342
232 29 8 10.48827153084938 -0.6723940652796389 4.380873679447026
233 29 7 9.68065025526602 -1.1372552329050722 5.218353681349359
234 29 7 9.719855147715963 -2.1660627663115837 4.467501173338428
235 29 7 9.35819829881791 -2.1837804574132007 3.4645651999976916
236 29 7 8.688953685008551 -2.890478519163575 2.0637795153086493
237 29 7 9.395505510212324 -3.9914216682594374 0.48336838518036324
238 29 7 8.022720518406002 -4.196699592544828 1.8398030159358876
239 29 7 6.335909878247891 -4.100579244102315 2.266568825639558
240 29 7 6.795233980152137 -2.3312188076316485 3.8693136219663904
241 29 7 6.270399861470594 -2.975515224245063 2.6930313946817477
242 29 7 7.391580900317231 -2.195840866441899 2.4693163579377577
243 29 7 8.144423449774887 -0.8068411521430578 2.8879523273002974
244 29 7 8.060713625353081 0.07801661068489602 3.2607709358976065
245 29 7 8.876944088814088 -1.1568304035529928 4.323521426539517
246 6 8 0.05167689698107608 2.313764355878495 4.994257997048419
1052 59 5 -1.7917707959776235 0.11822848062572362 5.11771468557687
248 30 8 -4.124790097578649 0.7178799414371843 4.80328186384431
249 30 8 -4.032183465737061 1.9449299378715665 4.179918586495
250 30 8 -2.948058845669457 2.9047152633843014 4.819123235326974
251 30 8 -2.0955815254618497 3.918333556317302 4.847184051960318
252 30 8 -1.7142070731557895 3.033046718365248 4.235025292905615
253 30 8 -0.889099254575065 3.406945057675262 5.218474743497366
254 30 8 -2.1718310008528023 3.764659286596467 6.285170646381461
255 30 8 -3.561288686422339 2.491072022413133 5.732285671587874
256 30 8 -4.55227004654766 3.7141644036404355 6.9724390182683775
257 30 8 -2.9688856643428547 4.338930900106492 6.5378112940815
258 30 8 -3.6782255726919004 5.480518488925885 7.896810392265153
259 30 8 -4.951025282231519 5.303824882943543 9.241912396145294
260 30 8 -4.5547692589663 4.069647739199642 9.179164927160723
261 30 8 -3.591889293393934 4.52665830416513 10.049946210298558
262 30 8 -2.417586017930417 4.1034089467032935 9.751725190208646
1069 59 10 -3.8468866086757427 2.98974430551778 9.340410387768552
264 30 8 -4.080051130017107 3.447165184568802 10.658561319560652
265 30 8 -2.9828660135212344 4.20293134033261 11.112758327872246
266 30 8 -1.9442446918617087 3.2928413291206 10.643760091918057
267 30 8 -1.2206656901999473 2.3651346933077515 11.608686920014042
268 30 8 -1.9191694896535028 0.7045273166299117 11.573139750739038
1034 59 4 -7.231101265831684 -1.6180363300404712 9.777441787026225
270 44 8 -3.497694110951344 -1.3324500799059573 12.732895092665233
271 44 8 -3.910840720048501 -1.639195670879823 13.715091439736812
272 44 8 -2.0171126456051844 -1.6855353051555075 13.688866293225669
273 44 8 -3.3556541235383297 -3.446926589035706 14.48078264731105
274 44 8 -3.778485305858448 -3.5694675834743075 12.259601365560036
275 44 8 -4.368325996357025 -4.795442099501065 11.657649542561428
276 44 8 -3.5227403235104773 -4.065930712400426 10.861776148248003
1047 59 5 -4.9354389742039935 -0.7024169020075454 8.782194286521756
1012 59 4 -1.521218169539506 -1.8277225839182734 4.637752801173592
1026 59 4 -6.843413135376292 -3.773088251361034 9.275613167827686
280 47 8 -7.658950453135211 -1.3205909538115415 7.375377778681901
281 47 8 -6.591480316484699 -1.9881841008421357 7.8773034667237045
1067 59 9 -4.679683697511256 -2.2568795475651724 7.31313547822776
283 47 7 -4.146374033876109 -3.5457584873926957 7.365167466551068
284 47 7 -4.738186831748772 -3.9840954741663857 6.4552629659286485
285 47 7 -6.176107664483516 -3.1486352253354477 5.547701680505313
286 47 7 -6.629722128861461 -3.7454907273950044 6.741027745565507
287 47 7 -6.917137033763014 -4.7430182764307 7.112942541900406
288 47 7 -7.752675639256411 -5.116715450119028 5.45192337772089
289 47 7 -8.618094086102609 -4.574271688838548 6.132028241733949
290 47 7 -8.180646296616434 -6.263217671473363 5.670356799180907
291 47 7 -8.912001552739447 -5.209716570422384 4.703473720935627
292 47 7 -9.694252816712174 -3.5660877668403157 4.383983227500126
293 47 7 -10.34003634682496 -1.9295925629747674 5.085899617793446
294 47 7 -10.05801021186414 -1.1398819703170604 4.180323809504413
295 7 8 3.4367634011292783 15.27616414730959 8.6762961140865
296 7 8 3.0354811383115985 15.093634782037102 7.684634181337743
297 7 8 2.7139935453752444 14.08448869877394 8.225491314929153
298 7 8 2.2342316409293455 12.936194098631121 8.534417899700198
299 7 8 0.5786452819921052 13.043460079530856 8.741198170919933
300 7 8 1.0519804452262962 13.996671517931032 8.207435574830894
301 7 8 1.0010263895495657 15.228141835033131 9.210315092531737
302 7 8 1.8231323453794683 14.472145523866487 9.568635615219513
303 7 8 0.6204578897311517 13.315496610873941 10.625149936990285
304 7 8 1.8406986674286079 13.44373142974063 9.870865793290502
305 7 8 1.0496369994654429 12.19723948989086 10.029868092633384
306 7 8 0.042741717643754 10.648929614917886 9.266133272417843
307 7 8 2.1520486690209912 11.3973806078804 9.18332754665429
308 7 8 2.2784404487717134 10.470524446291408 10.745887263945352
309 7 8 2.7898897610548214 10.697281249254189 9.68402649819155
310 7 8 3.372279470088652 11.753763121505964 9.795473384397395
311 7 8 2.886616747611721 10.991201222016795 11.517462411659858
1011 59 5 5.222453272991531 8.785358226922387 8.278572421030425
313 43 8 2.3942449220776427 8.710813728882137 8.764804146851885
314 43 8 2.0751876719712072 7.123738609767241 9.402067470553883
315 43 8 3.1267781810974236 6.814864442874457 9.821080806972912
316 43 8 2.4534209734629098 5.390830843257651 8.378653620773461
317 43 8 3.570080292331514 4.773209925387651 8.773023504403834
318 43 8 3.4134398433960973 3.3513263232752073 9.247784172914908
319 43 8 3.359265029610752 2.129382653764708 8.40005995868299
320 43 8 3.430769808294751 1.8340443760684741 6.464204090410205
321 43 8 4.323103170647508 1.4225968935032556 4.492241142573118
322 43 8 2.8243120268071746 1.906684938795917 5.617191196610322
323 43 8 1.80829611346415 2.422186743817928 5.384957323138348
324 43 8 1.0338699271246548 3.392794445573488 6.193053269111328
325 43 8 -0.2456259535989788 3.171715713580181 5.9843863018443795
326 43 8 0.0005767241087894514 4.846467192407918 6.783013056759412
1064 59 10 -0.5936501584324834 4.250318792146063 7.466247811608627
328 43 8 -2.2969395938090407 3.665333874317208 7.8359102649568735
329 43 8 -1.5097673686541535 3.3683640494591844 7.2352042910731456
330 43 8 -1.4341116772642595 3.787854665483789 8.450861705118358
331 43 7 -0.3351336308706541 4.210272237450616 9.472401016143271
332 43 7 0.6266136675034415 3.488431588843343 10.13128365480611
333 43 7 -0.9571287461820251 2.0972985815732548 10.548723535205035
334 43 7 -0.20026497683797012 3.0756976986164837 12.034645567673206
335 43 7 1.4944903544087869 2.82204169891446 12.00710107001569
336 43 7 1.8692199372844958 4.274490564046778 12.241585196006893
337 43 7 1.413570447912263 4.091741572547902 13.579456562007724
338 43 7 0.08139825898979106 4.487521164053461 14.285734922554633
339 43 7 1.0774516263816127 5.549792332755009 15.17904699475243
340 43 7 0.38498580304501673 6.181997154821471 15.155347997006752
341 43 7 0.7040618153995839 6.0273263079248505 16.54935064270153
342 43 7 1.3168990891235246 5.175405932048728 17.94110789774611
343 43 7 -0.3236938780496219 5.772512209148282 18.4029966719981
344 8 8 7.830461669824909 19.131991523136687 -7.88653747320451
345 8 8 6.5084403777884745 18.717614224346292 -8.538131471163256
346 8 8 6.271159818100995 17.321445926533336 -9.573069037731202
347 8 8 6.006347943413981 16.786044259152607 -8.095126467655849
348 8 8 7.033648142871945 16.65308283101478 -7.111013274824697
349 8 8 8.260292089461073 15.354191883178752 -8.007398555563983
350 8 8 8.142926230450424 14.619052022952365 -9.108160946075312
351 8 8 7.950671656206699 16.237075114143448 -9.183742076963892
352 8 8 7.481696511562972 16.38015735128723 -10.277978667044126
353 8 8 7.215090616680947 15.039797793066198 -10.832504076909515
354 8 8 7.706868813936241 14.950774996144709 -12.192584240429087
355 8 8 9.021661089505477 14.161305548112551 -11.829340519595439
356 8 8 8.904259564641771 12.406528248035693 -12.007651147751256
357 8 8 9.182723390305368 10.881989987743223 -11.754960196536913
358 8 8 8.468539525174862 10.192802828049727 -11.722316611074152
359 8 8 8.578782799163628 10.230424570342718 -10.645772342615158
1057 59 10 9.304063100677396 9.33039493513133 -11.850841189717979
1048 59 10 10.25146057699448 9.006126480418219 -11.815781942166144
1066 59 10 10.385404849940745 7.735008200068504 -12.210476714354924
1051 59 10 11.343047870233294 7.7231422688844305 -13.421382881039623
364 8 8 10.843070646135123 6.200936581374809 -12.357949842936199
1063 59 10 10.40353494901593 4.8273800259499895 -10.744225787596168
366 8 8 9.538863882964774 4.109520003652356 -11.93874463942208
367 8 8 11.362031198841231 3.9706814348238315 -11.232205772680873
368 8 8 9.987214221609365 3.0706935745770365 -12.571344989923526
369 8 8 9.085878264499295 2.3350164507794178 -13.617854690520348
370 8 8 9.277407774327791 4.26190573427998 -14.38755573548686
1038 59 5 9.828589893653058 7.74964309185434 -14.7470728329911
1035 59 5 14.013441735221283 5.26538850349598 -16.9123394493393
373 40 8 12.615402085152763 4.9639345473544605 -15.675496607554383
374 40 8 12.895874590127526 4.265093322797562 -16.822324045353373
375 40 8 12.567089655847289 4.34801245085752 -18.41621173389972
376 40 8 11.727783296814717 4.425196574726515 -17.787063453330248
377 40 8 12.089021672003804 3.099226644243727 -17.372979027036823
378 40 8 11.683271013961349 2.2068682804958137 -17.719792498798746
379 40 8 13.227123040528475 1.2141396391429353 -17.989482373213043
380 40 7 12.983911103651604 0.6250406420195076 -17.184244442311194
381 40 7 12.480091226545218 -0.3785740522064318 -17.156394058165052
382 40 7 12.234844521808569 -0.43349991343633654 -18.340037953644526
383 40 7 13.138280175148099 -0.7956574645674165 -19.211657540513503
384 40 7 13.675842912837847 -1.4436976826882773 -20.802474255336676
385 40 7 13.447860295133802 -0.4585690006303237 -20.614610136013667
386 40 7 15.10082046885432 -0.007881403493993844 -20.94955642431762
387 40 7 15.079812436707241 -1.5254708168001196 -21.97131439773078
388 40 7 16.00905603416259 -2.431029949106518 -23.497236978390408
389 40 7 17.019913954491532 -1.5603944817142728 -23.580442414091664
390 40 7 15.820918988225644 -0.5342224872710984 -23.630171645600523
391 40 7 17.38139152889122 0.6407423430280003 -23.001418620361036
392 40 7 18.730646525505176 0.409767036306493 -21.21107146387698
393 9 8 -5.13450184792639 -2.950555264397971 -15.387281301145103
394 9 8 -6.267840158844407 -3.51653436234956 -16.341386897466627
395 9 8 -6.17161563398616 -4.209860651570339 -15.06566748021496
396 9 8 -6.600395545655858 -4.416801243439031 -13.809804414459157
397 9 8 -7.256322749185088 -4.023461574993003 -12.93931327442169
398 9 8 -7.241329860968945 -2.275258503457328 -12.551450594215918
399 9 8 -8.554726926068033 -2.0308784659080956 -12.666599811496562
400 9 8 -7.6753713166045765 -0.8504074589625318 -12.296032278789054
401 9 8 -7.0014252528783825 -0.11698366458826479 -12.686287138262196
402 9 8 -5.904079465920245 -0.7526238615157581 -11.423590430972816
403 9 8 -4.491531403558103 -0.6902191484252044 -11.603334873157136
404 9 8 -4.226353430051926 0.3562629822799266 -12.344977879917936
405 9 8 -5.301029408957746 1.1623261697957628 -12.15437285011305
406 9 8 -6.917809500521042 0.9374464820193056 -10.303240016997593
407 9 8 -8.324763686985278 0.23984596000357863 -9.67794026448258
408 9 8 -8.173288081554311 -0.455757608889342 -8.698618038452743
1010 59 4 -2.6157618596767627 -0.511268281334406 -9.991824711586146
1022 59 4 -7.652448186283698 0.7771034308553445 -6.563704514020779
1016 59 4 -6.4062158022265905 4.561450132546205 -6.564664619383376
1029 59 4 -3.9006473561373998 -2.3284112293681254 -5.581907454083751
413 49 8 -4.115430408279744 -2.7156485245930195 -7.475995504617152
414 49 8 -4.405072745091271 -1.7313295682348995 -7.072235107036248
415 49 8 -6.003986115001011 -2.0112639615507946 -6.7029202704972795
416 49 8 -6.5482157941436725 -1.4343225726913438 -7.31800212908545
1021 59 5 -9.806859508482638 2.357276335078443 -7.463944053993764
418 31 8 -7.2261926510349985 -1.2071172196968576 -5.955205149317139
419 31 8 -7.293651203167518 -1.748605880167834 -4.336260348508308
420 31 8 -8.973848060905782 -1.6479823963762048 -3.6954755136855626
421 31 8 -10.26341189472247 -2.75202922145467 -4.026377054770015
422 31 8 -10.751472619056774 -1.839506043002799 -5.3038836258627375
423 31 8 -10.052652174189898 -1.8917994267621157 -6.436647132417074
424 31 8 -11.351186580473733 -2.3761909890236 -6.781937865985332
425 31 8 -10.66953426479631 -3.148673492826035 -6.250970444950952
426 31 8 -10.500160932847482 -4.350632609490819 -7.133802203732867
427 31 8 -11.886023674291232 -4.22358498166646 -7.8875916709911
428 31 8 -12.308688929484113 -5.047659115876019 -7.079869731142748
429 31 7 -13.258375554316649 -4.433823276276532 -8.103658249405605
430 31 7 -14.60099896483257 -4.278857874631221 -7.816939267860921
431 31 7 -14.034801845605438 -6.32830597162892 -8.041229431605503
432 31 7 -12.870359083520333 -6.423538469525936 -7.701224099625898
433 31 7 -12.007759112628563 -6.291041201709864 -6.218976935569614
434 31 7 -13.269117301218424 -7.9980406149909555 -7.214887636918687
435 31 7 -13.068464116284025 -7.28533634043777 -8.701969528035443
436 31 7 -13.841152894319217 -6.853406194044624 -9.410756646165115
437 31 7 -15.192255134925775 -7.437936598811272 -8.437766112731408
438 31 7 -15.216348448469176 -7.22880621589305 -7.0081732300451085
439 31 7 -15.42678154448024 -7.652207436956677 -5.996576088197986
440 31 7 -14.676076137001782 -8.026435745787708 -5.053738319845416
441 31 7 -15.348331891105499 -6.927808508900417 -4.739184976616714
442 10 8 -0.5098207848515784 15.206027334003158 0.35187524874254383
443 10 8 -0.9732811526869668 15.98134253842541 0.7743230834559273
444 10 8 -2.230638005088123 16.443811852840568 0.8508232868910489
445 10 8 -2.079668166244303 15.296771325131234 0.35457696670289957
446 10 8 -2.440593536783873 14.576064234989927 -1.0041084389997803
447 10 8 -3.2760091163350142 13.71946462334351 -0.6082869158138368
448 10 8 -4.479602948616539 14.495304635586773 -1.2016362666183305
449 10 8 -3.895140190459036 13.920343043911698 -2.742852265997835
450 10 8 -3.3079917532181993 12.41868101828257 -2.9559495108039684
451 10 8 -2.151414574916678 13.634577901873865 -1.9971468301298247
452 10 8 -1.903333835925783 11.813638400595798 -2.2311454903093964
453 10 8 -0.7773830548547169 10.060050480556836 -0.9862610177685137
454 10 8 -1.6156304149725318 11.450499815676814 -1.1123438670637396