# Generated from readdy-to-lammps

1005 atoms
610 bonds

10 atom types
1 bond types

-30.0 30.0 xlo xhi
-30.0 30.0 ylo yhi
-30.0 30.0 zlo zhi

Masses

1 1.0
2 1.0
3 1.0
4 1.0
5 1.0
6 1.0
7 1.0
8 1.0
9 1.0
10 1.0

Atoms

1 1 8 -14.584299841259835 -7.983409062377693 -9.536736472652441
2 1 8 -13.567249158220168 -8.507895038150256 -10.342769578648728
3 1 8 -13.244869108653546 -10.09818824541876 -10.740224465336118
4 1 8 -12.491258364694275 -9.079287467642127 -11.152692984196173
5 1 8 -11.920008069220124 -9.471911475648815 -13.053533079849872
6 1 8 -12.169546547333955 -7.684137220572404 -13.531867338658776
7 1 8 -12.507093498496507 -8.382904240615456 -12.36961144072745
8 1 8 -11.409909269440147 -6.900350257505168 -13.173773978995586
9 1 8 -10.661590778937263 -5.826650350924582 -12.666701287243582
10 1 8 -10.760740395424218 -4.64676772762333 -13.830319891952248
11 1 8 -9.831790787910617 -3.7166581526870126 -13.097868029198473
12 1 8 -9.522908278848647 -4.841784923110366 -13.246331326076202
13 1 8 -9.453466856033977 -5.3603681975532185 -12.14187762797546
14 1 8 -8.107438866208998 -6.468081967312545 -12.591828311544697
15 1 8 -8.236445335356025 -7.9277791618096884 -11.588076328829468
16 1 8 -7.687880199249598 -6.708641790667395 -11.01546302764755
17 1 8 -7.5778097222352825 -6.237364005002085 -9.670987648610364
18 1 8 -8.11061393189442 -7.498615577262926 -9.544843286177487
19 1 8 -9.52463846985501 -7.221134752987058 -9.640577204987913
20 1 8 -9.261477128834 -6.356229544991298 -8.441740274491814
21 1 8 -7.850603849887474 -6.986378426439582 -8.048679740501564
22 1 8 -7.014955359661987 -7.760293939044195 -8.027779696532912
23 1 8 -6.934512491377415 -9.14280708251868 -8.084591741101724
24 1 8 -6.501410781842613 -10.198054614924406 -8.763752841268335
25 1 8 -5.595234796539475 -9.914255969248414 -8.62615930298833
26 1 8 -5.47427730041798 -9.667023574741112 -6.889880383637089
27 1 8 -5.655717689279517 -8.25701875389196 -6.3969487023378875
28 1 8 -5.844084548625929 -8.210082180057354 -8.132120471440565
29 1 8 -5.988079979381573 -7.770866541171794 -9.448406104372257
30 1 8 -6.324332083842163 -9.365417248088225 -10.69945975011126
31 1 8 -5.849249958888724 -8.450145377587665 -10.228069756537135
32 1 8 -5.202435313792013 -9.010516343851156 -9.545969670156728
33 1 8 -3.6790444800174624 -8.17518279563977 -9.433599327669016
34 1 8 -3.32600046920323 -7.5603491697926 -10.360334130778712
35 1 8 -1.4286421379022551 -7.104200309949609 -10.69159990337837
36 1 8 -2.3707566461256167 -8.470617440811592 -10.122582145590306
37 1 7 -1.4446452928306162 -9.157521710901435 -10.826541931756887
38 1 7 -2.280397697541391 -9.899042494269326 -11.787507835476132
39 1 7 -3.5064550916335935 -9.012293556977177 -12.383656333760516
40 1 7 -4.624564618259151 -7.433603717482354 -12.254552902840947
41 1 7 -4.349478250917776 -8.295175691450936 -13.378450056569676
42 1 7 -5.452062563322155 -7.0167701820835555 -13.092440452240814
43 1 7 -5.31343158849531 -6.21425080248249 -11.91008016554258
44 1 7 -5.092463344577653 -5.959576528767876 -13.037116647951233
45 1 7 -4.158087067102659 -5.545701181800793 -13.358282125361812
46 1 7 -3.505835380953329 -5.670137479514843 -12.408821178745299
47 1 7 -2.4239092815039807 -4.999356552796147 -12.790926466191982
48 1 7 -1.554997895261467 -4.067292622034189 -13.33085920957191
49 1 7 0.0869635847824614 -3.949895240162121 -12.184524180795833
1050 74 4 -2.961469939661405 -2.3578149525716063 0.5951102970661388
51 74 5 1.7780157505593133 -5.0924932911484175 -8.50998613728845
1046 74 5 0.9157985328768262 -5.492124986994008 -1.15417335684186
53 74 5 -0.9747717392201891 -5.403380098843161 -0.8509888191670881
1042 74 5 5.326056498245436 -3.3122282502997735 -2.72536592979303
55 55 8 5.1853561783033255 -6.006536753817147 -0.6878273995357476
56 55 8 4.395994463411323 -4.4635274029722325 -0.4970874627326549
57 55 8 3.501419061528941 -5.357886604196984 0.2558371956222974
58 55 8 3.627246920808325 -6.0396402542102035 1.2792306143734906
59 55 8 3.097127282403829 -7.243945346244533 1.5083922704492247
60 55 8 1.8667902574765538 -5.397453577288218 2.016216086738224
61 55 8 0.43450092988096445 -6.176240603990545 2.3802894712796894
62 55 8 0.5147351986447788 -4.544928464490562 2.6794034831914884
1007 74 4 -0.8347216438071027 -9.8565358062811 7.372388766218374
64 27 8 -0.47850342082651 -6.638745722104366 -0.0966171974100214
65 27 8 -0.40042160605947125 -5.655810610018992 1.799688396102848
66 27 8 -1.5491994968370013 -6.361788406025873 1.7394543163805105
67 27 8 -1.7387498606172904 -5.63175422952455 2.783923873209815
68 27 8 -1.3995968181797986 -6.4875555875399575 3.365184334662078
69 27 8 -1.0461220426352957 -5.353944940198119 4.2373421855541835
70 27 8 0.15856083298300166 -4.852389500514269 4.642738588088119
1036 74 4 -2.7785122037146754 -4.976875127600515 5.837335926476404
72 74 5 -0.34914688580541936 -0.39083727232320253 0.2489081627655577
1009 74 4 -0.8804688746083421 -3.3848332295992227 9.075891915459687
74 57 8 -1.9791521596432848 2.1152606909010885 0.34703520479876954
75 57 8 -2.043924189732983 0.7130736452058813 1.71247809882369
76 57 8 -1.5109660315306817 -0.5373449880169388 2.488734719912099
77 57 8 -2.3731292823593546 -0.7946302562685732 1.5119201214514026
1074 74 4 -5.873449684794302 -0.13322207838467134 1.4882690917419452
1037 74 4 -3.4588272029857405 2.524114775076828 8.12806800230518
1017 74 5 -6.786689934686456 1.237537170240435 6.1837281876808
81 60 8 -3.9408669863935786 3.5522560962643905 3.2463061108810423
82 60 8 -3.367547650200299 4.606257056795106 3.6957856508178994
83 60 8 -2.4388678278491804 3.5284050939717644 2.709655451637352
84 60 8 -0.7925535488953215 4.609938673474841 2.760683165480476
85 60 8 1.114472521174368 4.6414631409755875 2.070347447513515
1079 74 5 4.210995539856442 0.46827925723696945 0.8237827036257294
87 66 7 3.0371215221437264 1.7061947799791763 4.013402503454357
88 66 7 2.164376406819991 1.0236108503132844 3.4703958176163843
89 66 7 1.6528365001776422 1.0365610937035867 2.5087664444028763
90 66 7 2.606416576393241 -0.23671098163046322 0.8387420048338903
91 66 7 2.493631009148355 -1.8366432640711103 2.628122938052239
92 66 7 1.617073694985143 -3.2052769311817038 1.5539214300120188
1044 74 4 -1.8251114946358424 -1.9863929565846898 -3.767570173487388
94 59 7 0.29885117063852007 1.0648652077307565 -0.10940795275722351
95 59 7 -0.8690914079251718 1.0473967283560288 -1.0212173294009286
96 59 7 -2.089736486823999 -0.5910895063112107 -1.202343458072606
97 59 7 -3.4325973710600977 -0.812099222362678 -1.5571054728925129
98 59 7 -2.9504167680252276 -2.388600038117929 -2.248563373645682
99 3 8 1.6280120129888453 -8.503503022511067 1.2612095125029927
100 3 8 0.8392952888144037 -9.701100489713886 0.9784125633063243
101 3 8 -0.29106583627807325 -9.639609983623314 1.9262079250570416
102 3 8 -0.8107767278997962 -8.570766449005548 1.2829083028498616
103 3 8 -2.0273074069355506 -8.480569024123591 0.8209020923680345
104 3 8 -3.3082421757110856 -7.3635509643228545 0.03856361827446436
105 3 8 -1.9092323484134808 -6.946723011327723 -0.5588717450013411
106 3 8 -2.3200213095209987 -8.82154490129529 -0.28493107813508356
107 3 8 -3.528564800804453 -9.149438122729054 -1.0201775611976616
108 3 8 -4.5740848189634065 -8.209294057983612 -0.8758387298543108
109 3 8 -5.254311350125192 -9.33119248080119 -0.9254543311837835
110 3 8 -5.7902410829963795 -8.60748970449516 -2.8171325407874614
111 3 8 -5.78743288617225 -7.9680638796603604 -2.0266533981796524
112 3 8 -6.5248672909213985 -8.679756904407215 -0.5844235582133952
113 3 8 -6.691427005640345 -10.708192811499591 -0.9104922430093374
1024 74 5 -4.28456856964403 -10.692967932859023 -2.091700308971935
115 45 8 -6.247038568488437 -9.679660911220937 2.0646736900129397
116 45 8 -5.76200008840163 -8.764891752805836 2.3017101645759785
117 45 8 -4.228064540340281 -7.824636624755573 2.5266742201848706
118 45 8 -4.21029667804914 -8.713946971600068 1.3207144688850618
119 45 8 -4.338599470320516 -8.689252073980358 0.2587133936545884
120 45 8 -3.212995279794065 -8.37704743132332 0.340142256410725
121 45 8 -2.3535299528901557 -7.470492840930708 1.3738650442184428
122 45 8 -2.5717099595108475 -8.767878766391727 3.084079689322879
123 45 8 -2.6987779659929183 -8.487575176937895 4.3257301864596736
124 45 8 -1.5269620510947621 -9.415688894208433 4.655261474705835
125 45 8 -2.149585160539839 -10.142854128735399 3.43977883646092
126 45 8 -3.2326062357909895 -10.306728684694479 2.3595558151613374
127 45 8 -4.412318035010707 -10.373978960808646 2.8729909979083033
128 45 8 -5.093287852936822 -11.266588376324663 1.8242403163438115
129 45 8 -5.723201704655234 -11.65498325146764 2.6179953006589347
130 45 8 -6.659830317268705 -12.164444610575575 1.615500508723846
131 45 8 -6.872469119589257 -13.975741632429392 1.0251354320132582
132 45 8 -6.6856910790524875 -13.15622844556468 2.6389232068536823
1097 74 10 -7.871797904962679 -13.814973086990037 3.587770437950523
1084 74 4 -9.673639123109481 -13.213911841494681 2.3481609277330078
1025 74 5 -6.148033738071496 -13.137723020062497 -5.678443918435769
136 42 7 -6.238955095098459 -15.978499305038632 -0.2292990444079105
137 42 7 -6.35443293434855 -16.68472603275229 -1.6302786522320167
138 42 7 -4.362210622937172 -16.332015620905285 -1.8277491147389706
139 42 7 -2.96912681534765 -16.351966175149464 -1.4633369707268518
140 42 7 -1.910100951286911 -15.282758093051234 -0.40985163704096916
141 42 7 -1.780410532302213 -16.31928982622349 0.8050039084344158
142 42 7 -1.3970212041796755 -14.074658351283837 1.504144069007172
143 42 7 -2.969692998724148 -13.323279384921566 1.3598462259435913
144 42 7 -3.067610456151694 -14.225884827364926 3.0108663746457744
145 42 7 -4.667123730687941 -14.029376340275714 1.8995795560803284
146 42 7 -4.141599999503846 -13.28111192280968 1.4324597477736236
147 42 7 -3.9624941618764424 -12.996902993626316 2.820857266122913
148 4 8 -0.6660514730490306 9.553652946644641 18.065751843241618
149 4 8 0.261670548242105 11.438550430589027 18.690829981593893
150 4 8 -1.0750498851136359 11.192410908132002 20.741480186558626
151 4 8 -0.47456417793252653 10.340325164287112 19.93854555894838
152 4 8 -1.701678312854404 11.077629681176294 19.607875775125695
153 4 8 -1.9627600032513095 9.525929711120622 20.543106776144338
154 4 8 -2.8787019842645862 8.529761639277998 20.22769263618829
155 4 8 -2.37579883231294 9.351075445843165 19.45681894662041
156 4 8 -3.7399361319171005 8.838721723515373 18.367484191087726
157 4 8 -2.9439442798691307 8.689054586364158 17.595430265488172
158 4 8 -3.3980046847016383 7.642611822935034 18.411703383856924
159 4 8 -3.9796465151664027 7.718642368877588 19.459225321813644
160 4 8 -4.0379092505132 7.16145755212156 21.090267489731332
161 4 8 -3.691294400519805 5.788718138586498 20.754355979298584
162 4 8 -2.2725956996016508 5.123371865042794 19.55104243507904
163 4 8 -3.7418169219626014 4.699282697727104 20.020384805277907
164 4 8 -3.7302857104252563 3.8391499306926606 21.21377017651629
165 4 8 -2.528544262994876 3.977478814477579 21.730617523887158
1031 74 4 -5.2471731111050195 7.875717652329676 17.772852724004128
167 74 4 -4.490675879322096 6.880295558305694 22.323548058618254
1043 74 5 -2.850901911767741 4.376749135647035 24.637552882947112
169 67 8 -4.402296515866659 3.013705368544266 24.06812308835345
170 67 8 -4.454777987110971 3.801419593870723 22.966255106131854
171 67 8 -4.133137680994791 2.52860007874392 22.406234094787298
172 67 8 -5.588738716669083 2.1619951839664298 22.366399382064962
173 67 8 -5.854476110068779 1.0559661535060836 23.456705634701112
174 67 8 -4.863340143266223 1.2418557867565077 23.763705777818128
175 67 8 -4.089476386001265 0.4700460590213042 24.899938234133888
176 67 8 -4.383820748863862 -0.5453057207387237 24.27169887534199
177 67 8 -3.7382158477702085 -0.8400097490495155 25.765714282740802
178 67 8 -2.4300716894661742 -0.38523357850460455 26.242781615275913
179 67 8 -2.2550990239698123 0.767289499415189 28.22881158037554
180 67 8 -1.217750530166113 0.30652870995084314 27.61838363871034
181 67 8 -2.277792869854569 -0.5727345562612031 28.499101648942613
182 67 8 -0.8918743239258186 -1.4653691476810156 27.7922872815591
183 67 8 -0.14453767914837856 -1.3364051361395357 29.3625777412366
184 67 7 -0.8690908360115414 -0.5382216508891045 28.44176236376056
1028 74 7 -0.04857788828169536 0.26991284578365454 27.273455788627782
1023 74 5 4.886451562719534 -1.4982782245497042 25.472120718887677
187 31 7 0.6495132464407157 -0.8796526043284886 23.782880644230307
1091 74 9 0.5186481356761471 -1.8947473158301396 23.826377633157787
189 31 7 -0.010407494629237147 -3.5500833334658286 23.164809129849424
190 31 7 -1.4846939292955295 -1.4928579230492858 24.00602949617555
191 31 7 -2.0528840009973357 -2.7338240051749017 23.513537326177513
192 31 7 -2.6161277721142917 -3.879229521289109 23.293204106193258
193 31 7 -2.811879987567909 -5.171650428607159 23.93655553623279
194 31 7 -4.305501920724841 -5.446645629731333 22.51134782095768
195 31 7 -3.1607035539654507 -6.975738242497481 21.9221041919005
196 31 7 -2.9300435113191234 -5.7225083158709555 22.013702611673164
197 5 8 2.6894510548753527 -2.173674823680039 12.12836032208607
198 5 8 3.23072561877243 -3.462642619860492 11.684277377343147
199 5 8 3.9866055036613024 -3.416010771759447 12.926241916249182
200 5 8 3.0672415306137433 -4.035167352707433 13.316581563409546
201 5 8 1.923949862579889 -2.5761924640012612 13.760659163193822
202 5 8 1.5986685598354062 -3.0179542862476265 14.765493634786177
203 5 8 1.1248656596504136 -3.469648366394371 16.037127030185818
204 5 8 1.2329111444718241 -4.3075345801974265 16.772597331613685
205 5 8 2.59241497885766 -2.7177442886943255 16.803409955513068
206 5 8 2.941824937208096 -2.119912018974812 17.84157432098999
207 5 8 3.778541866410241 -3.3249235949716724 17.286462287906133
1056 74 5 2.608239501291595 -8.720677169312214 15.93084905610573
209 71 8 4.917291103197824 -3.399449169921594 15.978410607390392
210 71 8 4.6936804293089915 -3.206078880047145 14.918642184245153
211 71 8 6.110101549299494 -3.235958871845611 14.430463473552125
212 71 8 5.337432452344878 -3.969941116423767 13.067049487642294
213 71 8 5.867414198353811 -3.1201407096068023 12.574040098927215
214 71 8 6.949557456813522 -2.729655139450268 12.035656814593658
1080 74 10 5.307890217563044 -4.227003684877102 12.033589806213188
1019 74 4 6.631634981035075 0.6991419355714071 12.287309367203662
217 30 8 6.2658426134662575 1.2567403661906598 7.994841026774642
218 30 8 4.944996553363445 0.4937161271348763 8.963233686357182
219 30 8 6.557998768428604 -0.0006285908844225852 8.482465607221103
220 30 8 6.795338669510515 -0.20539482466923661 9.581700550018985
221 30 8 6.948228942525875 -1.3990524433754028 9.570695804317742
222 30 8 7.634204984954838 -0.17337216405708694 10.392855337850692
223 30 8 8.628921478699384 -0.7264586941298424 9.45333922963824
224 30 8 8.875493150007408 0.702556764819362 8.29864678400577
225 30 8 7.103767328797488 0.8140716408842897 7.607806722538141
226 30 8 8.161416573592641 0.2379512242437435 6.645307723038258
227 30 8 8.124892280018619 0.05949496911998915 4.959329388578644
228 30 8 7.647935172051448 0.8652389602294741 3.879167309930602
229 30 8 9.09394378962667 1.9766696205420824 3.8485388963634133
1054 74 10 9.77191206546165 1.1478526121009038 4.391040657864007
1076 74 10 9.950684061652058 0.9931029974774622 5.69039176098593
232 30 8 10.91894960259633 0.27578649973094216 6.306309485019922
233 30 7 10.411412401214763 -0.13185588368852608 5.578052915601618
234 30 7 10.523983660452823 -1.743877688770359 5.883410197167849
235 30 7 10.269484516556613 -1.4831707780677177 4.782082350866638
236 30 7 10.324110772686335 -2.8433444863191917 2.917165755555877
237 30 7 9.268597466544135 -4.578506111414131 3.2140883219834047
238 30 7 8.211479542343547 -3.918672602736876 2.4120708569939167
239 30 7 6.817251517570134 -3.4718492168307638 2.2013050663390774
240 30 7 5.340768817200024 -3.7981105941425817 2.3639254070189644
241 30 7 6.537991590186525 -2.4710336967192874 2.664430030130813
242 30 7 7.723892540843195 -3.161993025508011 3.251670727331949
243 30 7 8.519367847732322 -2.4824458821184945 2.0166360132786365
244 30 7 8.341757941654494 -0.8942601756539474 2.040044087059363
1090 74 9 6.867047098738014 -0.6502984120706283 2.059147846271237
246 74 5 -1.116748651415975 3.983621806924173 5.923924976750543
1052 74 5 -3.514539391679706 3.0048882218759427 4.947502147030265
248 32 8 -5.537589847960723 3.096748090965167 6.457960879772347
249 32 8 -3.3605102170490184 1.3991871804465146 5.922604411541487
250 32 8 -2.7378155669901147 1.2434456977823045 4.668223821353918
251 32 8 -1.7751789512661686 1.6879446357703922 4.300258868369974
252 32 8 -1.6417359308790493 2.7083756400520507 5.1756476460377225
253 32 8 -2.415888385714142 3.702811405787183 6.232481307180327
254 32 8 -1.5930461867424122 4.545466306661686 7.70644972641309
1071 74 8 -3.3847560327511492 4.228114341498209 7.910387239287091
256 68 8 -4.216740812806507 5.590198096124889 5.979121520680827
257 68 8 -3.848891836122868 4.269254708256881 6.917331070260237
258 68 8 -4.085761072584828 5.505530536327326 7.830924770417661
259 68 8 -4.620772629019396 5.0538875741517 9.53327668055733
260 68 8 -4.4025329268564235 4.988398108814079 11.267382026305375
261 68 8 -3.447781557899846 3.5603349020277957 9.765107622473545
262 68 8 -3.1545723958221554 3.045778216474983 10.664951434338315
1069 74 4 -4.685631865160996 2.6987323828065213 10.493475968662759
264 62 8 -5.712467765330701 2.059539138886386 11.297026440149574
265 62 8 -4.420606931739075 2.537795738017191 11.515749737584313
266 62 8 -3.860566770896387 1.3638742885210289 11.033388794199348
267 62 8 -2.1795861061559743 1.3178515093272871 10.813812910512112
268 62 8 -1.1092688490089861 0.7165216286326561 10.704035963779544
1034 74 4 -7.104515501516851 -1.2929667421290256 12.034014217024067
270 47 8 -6.248786086774552 -0.3693377591170748 15.333487219370303
271 47 8 -6.328427422540106 -1.5441124741664343 15.236973267020563
272 47 8 -5.669886309649374 -3.062677112230496 15.453350330681674
273 47 8 -4.890596645792359 -4.244457725115868 15.17195018261846
274 47 8 -4.885800126005895 -3.5146221894166865 13.5212640383117
275 47 8 -5.495947626581022 -3.9495109801124393 11.957913555530608
276 47 8 -3.8014615713139404 -4.363195794349991 11.911675641119489
1047 74 5 -3.9899203365395044 -1.6496597289672685 11.07593766811688
1012 74 4 -2.8850522146011377 -2.0875474508894767 7.667422798452008
1026 74 4 -8.84923722031531 -6.815138094146744 10.53427400525554
280 51 8 -6.630960533169233 -0.024192185571517852 7.802938219404591
281 51 8 -6.467614395936095 -1.0564453431068188 7.7485179995451
1075 74 4 -5.123153790826945 3.5112183373242845 9.50113770653647
1078 74 7 -4.878238617135059 -4.352280263087075 8.482481002226203
284 65 7 -5.355309252723062 -5.339877278884997 7.2547827392544315
285 65 7 -4.953789229024759 -4.78434550354445 6.064609255807587
1100 74 7 -5.354663278762128 -3.5840252898900395 3.5608956307971145
1099 74 7 -6.823808375983302 -1.270459846530623 5.318248857716565
288 70 7 -6.723482897916972 -3.2051737969200933 6.173193640654396
289 70 7 -7.403507494155856 -4.244506261879448 6.001635571576714
290 70 7 -8.699576184484703 -4.811027372321463 5.223309128106924
291 70 7 -10.361125184154318 -4.547854732862477 5.60639085313508
292 70 7 -11.268422100742702 -3.36196005419625 4.41757556860912
293 70 7 -12.062793047132214 -2.7153204770799837 4.1359845501716554
294 70 7 -13.882217986450293 -3.3708629197929905 4.053388356879252
295 7 8 0.9753294027897818 13.278290336328894 5.102866832742562
296 7 8 2.069990489425614 14.301922813000491 6.216423390889827
297 7 8 0.7738511105899312 14.638226169858912 6.432003682841385
298 7 8 0.0716774438613029 15.242325173510189 7.434559127441088
299 7 8 -0.9277332908195727 14.324033889152314 8.824618061109476
300 7 8 -0.6026329024933873 13.362907560957156 7.834702793732698
301 7 8 -1.3345358062642667 13.168335963262727 8.843304545728715
302 7 8 -1.068468637559644 14.455210304638848 10.055268819114968
303 7 8 -0.5122206417508457 13.054840128462478 10.233460297489032
304 7 8 0.6051104035635259 12.112376816044803 9.909465995050821
305 7 8 0.9201197083287146 13.16304566246084 9.06925965804387
306 7 8 0.5039121970073194 12.279359392668217 8.833359351203287
307 7 8 1.836534359006843 11.92116064649637 8.862620770995687
308 7 8 3.1093139201188293 11.509699053805798 8.406893161173288
309 7 8 4.293714576143011 11.601581326530006 9.738218382893843
310 7 8 3.9928398825774747 11.251958483249584 11.438481609430161
311 7 8 2.707317639915704 11.157004179893972 10.284634649906826
1011 74 5 6.541774940263954 7.769063669336314 4.3869761289333855
313 46 8 5.0825008973166765 7.776380862419631 8.898293883355693
314 46 8 3.7292778345261373 7.219911135946844 9.334096308985755
315 46 8 4.337999818689058 6.12508183187542 9.21372967047811
316 46 8 4.0835874785317605 5.330239005541781 8.59955854406721
317 46 8 2.8396269508375074 5.1070492063457715 8.39818004314744
318 46 8 2.334867646052122 4.02130663683963 8.929905828039233
319 46 8 3.618171341385334 3.147360449052246 7.875799179881828
320 46 8 3.982272381473053 1.8445391023933666 7.394927442848683
321 46 8 3.976343617788267 0.6559827876109039 7.551353049561411
322 46 8 3.284436265102452 1.3636638087098159 6.182405325945947
323 46 8 1.383025261011739 2.735114236509516 6.8627285372885165
324 46 8 1.811664242031591 4.073834871771414 7.793732053519746
325 46 8 0.5112722410618944 4.570089640752518 9.004388885117745
326 46 8 -1.162142430542252 4.715935717695015 9.966966045199731
1064 74 5 0.15250591344589687 4.760844578468118 5.080563315072527
1088 74 4 -1.436732988042408 1.5934061757399436 5.941470615947722
329 50 8 -1.64965569729009 2.621457792216525 7.279778808956466
330 50 8 -0.6248214629956432 1.5483845032867214 7.9272043121508675
331 50 7 -0.9939294201627368 1.7626419797469726 10.069232971242307
332 50 7 0.12036228779567293 1.8588562110209466 9.832544466922409
333 50 7 0.6367795097006657 3.5835198165383058 9.530852440613282
334 50 7 0.5125343895109384 3.9443913456604753 10.57286520566693
335 50 7 1.2195562784505525 2.930103185968405 12.422015264035474
336 50 7 0.9606876231788978 4.097609517794646 12.68055473355693
337 50 7 0.4433235583145999 4.0655907118983485 13.929816547741677
338 50 7 1.3776154286668263 4.880874857496487 14.620535558180018
339 50 7 0.62674742377111 4.425340143530112 16.001488374499242
340 50 7 0.2532663299587738 5.966027033482369 16.150854256700253
341 50 7 -0.30495957897623044 6.084827948465798 18.711010026405532
342 50 7 0.19980493719801326 5.976817555370582 20.062023741598573
343 50 7 2.158889677314384 6.5661687969821605 19.37508679498254
344 8 8 8.717114220659905 18.81298925374042 -8.147475978387854
345 8 8 9.132187478445609 17.98680504247358 -8.667916281998927
346 8 8 8.200004888629257 16.35512915164561 -9.190147290385887
347 8 8 7.5728494791415 16.70017497712516 -8.379057730568645
348 8 8 7.645929347727924 17.013047505718532 -7.125539397207313
349 8 8 7.973592582486586 15.694022601772286 -7.654664806268956
350 8 8 7.54917849626876 15.466163263923933 -8.755073714970104
351 8 8 6.950397259279113 14.687732140092344 -9.388327983735673
352 8 8 7.924721896230843 14.899236185051977 -10.498930054996688
353 8 8 7.939605949568345 13.824168377813406 -10.664197423276235
354 8 8 7.018364455813874 13.240619225891194 -11.711200174915673
355 8 8 7.659549949665408 13.422250037819596 -12.728864062755614
356 8 8 7.5932377381012985 12.782113639635297 -13.492452833438117
357 8 8 7.177591699441837 11.419591622834359 -12.791614206479665
358 8 8 8.590449721344662 10.11045475444811 -13.135155964506593
359 8 8 7.961941565168418 10.049441655218008 -12.150918289354118
1057 74 8 9.737685613305256 8.090646116819334 -12.433442651381371
1048 74 5 8.117516415662747 8.896015974333894 -11.931537980846453
1066 74 4 10.690041433364797 7.077759338977668 -11.113937316718836
1051 74 5 13.16771130232423 7.855629688796131 -12.383808582569106
1077 74 5 7.329622088585883 3.4316067650761113 -11.825495320914937
1063 74 4 9.752693559788522 0.8978843752933258 -9.51687974252017
366 35 8 9.0784415098655 0.981708965065326 -11.905499107242097
367 35 8 9.03565131725867 2.483345945239017 -12.50378878802372
368 35 8 8.121492966769528 1.8671523226436444 -13.248763436052807
369 35 8 8.080366996712915 3.008064031129727 -13.694789025382352
370 35 8 6.4315615450570744 2.479542135110078 -13.098886371617743
1038 74 5 12.42209728552528 10.336462464442631 -13.94059700512567
1035 74 5 15.280735093671407 7.99181792196521 -20.73441545785863
1083 74 10 13.167304984626766 6.3048687350546535 -19.32354099712302
374 43 8 12.136075934134672 5.672551751904131 -18.415434738257492
375 43 8 11.000425880385597 5.657791755808567 -17.48593264295243
376 43 8 10.370950620370607 4.12379504232245 -17.12161280178445
377 43 8 12.825526469679138 4.027037082177857 -17.53163674932944
378 43 8 12.657539841415598 2.844055519097776 -19.191943685440446
379 43 8 12.971634159175041 1.988960422212355 -17.661140963414926
380 43 7 12.02143056131708 2.2512638493821133 -18.5059482091281
381 43 7 11.656768459557673 2.8832207611328866 -19.36427205570611
382 43 7 11.963716824693854 1.5159710611794384 -19.917634977914876
383 43 7 11.24657262710205 -0.10570446476680317 -20.387953581071713
384 43 7 12.704443562575618 0.3021529523297921 -20.184827039784174
385 43 7 12.812749570690075 -1.0187849100175248 -20.877119901794707
386 43 7 13.88299464906339 0.058877967478484824 -21.67526511389393
387 43 7 15.437225037492102 -0.8340295912412203 -21.15036360942493
388 43 7 15.594219264562703 -0.2718286699233924 -23.01737778217366
389 43 7 16.80538470820295 -1.2893938140748793 -23.481456124231794
390 43 7 17.171359127212785 -0.9430726990498081 -22.11025627491182
391 43 7 18.62843289972349 -1.1486169903345802 -22.06348703390012
392 43 7 19.095541657280073 -1.3958390073528462 -23.250193755360705
393 9 8 -5.0047277522312825 -3.7596045360496557 -15.678241810825101
394 9 8 -5.929350732532608 -2.2142012894464584 -16.109003448841584
395 9 8 -6.2413913414496776 -3.6124425765905706 -14.957067173320564
396 9 8 -5.667043885717858 -4.098814570811636 -13.85679068804637
397 9 8 -7.632836928886939 -3.7619234538276722 -13.685544999117342
398 9 8 -8.477739643965272 -4.294027020700749 -14.029808428165762
399 9 8 -9.21254886453437 -3.247692718701578 -14.834046978018025
400 9 8 -8.384239959269271 -2.4163960015674237 -15.01769346688088
401 9 8 -7.406591851704402 -2.514658357354485 -13.977483489244367
402 9 8 -6.1468625419578045 -1.7631239483682033 -13.581994491315566
403 9 8 -5.010173456982272 -2.0387345177931087 -13.905561638134559
404 9 8 -5.117501511579081 -1.142838716592455 -12.534581914733018
405 9 8 -4.8995023012009495 -0.31117730108779135 -11.518755347832867
406 9 8 -6.496283571296613 -1.8273625370459 -11.487490468830961
407 9 8 -7.378668148779641 -1.9711532707025559 -10.395420950697938
408 9 8 -8.694453108885682 -2.4006713529322687 -10.342210739805797
1010 74 4 -2.3573480189611753 1.6564890315846326 -11.535169846839183
1022 74 4 -8.590745704305633 3.4093002230059013 -7.349142449283567
1016 74 4 -6.966676978361347 5.043630485323648 -7.196569641064558
1029 74 4 -1.5272853725209368 -1.349321456434528 -5.815047751099309
413 53 8 -4.96186841267458 -2.652887294041348 -9.447100422683706
414 53 8 -4.450758785447623 -2.2232827317264428 -8.440325409832418
415 53 8 -3.3943417475318123 -1.4411153869419961 -8.228732893929825
416 53 8 -3.6835989956825546 -0.22443198177839524 -6.969789391680785
1021 74 5 -8.496207082289018 4.0366287322947905 -8.312900215402193
418 33 8 -8.310650518956908 -2.26625162862315 -8.606145313327062
419 33 8 -8.32313859122796 -1.1801024059721303 -6.777653906594824
420 33 8 -8.916728734951352 -1.2250467780607655 -5.356153135277237
421 33 8 -8.916251493004035 -2.5154944574170046 -5.680090191484858
422 33 8 -9.207883928514196 -1.7124363939190819 -6.266855373161927
423 33 8 -11.073862943382798 -1.7022223503241893 -5.6292048267910415
424 33 8 -10.52659033750628 -2.9266207787898586 -6.01916049820439
425 33 8 -10.642597614926588 -4.4143420223905325 -5.472597818238187
426 33 8 -11.33743264978644 -5.496008053663003 -5.787715771038631
427 33 8 -11.484281673458465 -4.993188042216375 -7.178925659575832
428 33 8 -12.219192902585874 -5.573111422166509 -7.95155973135772
429 33 7 -13.263870325593482 -5.185469618868043 -7.228026870412052
430 33 7 -13.062222877798144 -5.623442987252427 -6.228890240509217
431 33 7 -12.080562459753716 -6.424496991558212 -5.464734185519947
432 33 7 -13.699191077985144 -7.163088150794168 -5.055397489746926
433 33 7 -13.24556168027762 -8.370397067794194 -4.745105535688502
434 33 7 -13.578575087097272 -9.785188993086976 -5.41790712867547
435 33 7 -13.270681340941902 -10.099303881703252 -7.0502219501958665
436 33 7 -14.833885460650537 -9.192400562481039 -8.623500190440234
437 33 7 -14.99543109028691 -8.093901552597739 -7.9857894446668745
438 33 7 -16.61219101945331 -8.333941254885378 -7.287092282641979
439 33 7 -15.169322795493988 -8.138682203055595 -6.5839893266595375
440 33 7 -15.393019076305784 -9.11212551060322 -6.370712840772957
441 33 7 -16.058556940283317 -9.75316912662336 -5.0656942929141255
442 10 8 -1.1955659284109617 18.12163692863878 0.9222560751235905
443 10 8 -2.6020537356050286 17.36360974898508 2.541840195802948
444 10 8 -4.01248585067127 16.58273638487518 1.5925793280116476
445 10 8 -4.8651192744093485 16.47145595284532 0.5704046197570359
446 10 8 -3.8352556091297116 16.14438895632632 -1.0617181436005538
447 10 8 -3.7148765139282514 14.784287091901293 -1.801150095912019
448 10 8 -3.6597846586378378 15.385461903392839 -2.678590299803038
1082 74 10 -3.7152850250699814 14.831889106409701 -4.574561692795221
1093 74 10 -2.729834620484123 14.177997816997758 -4.1223875285154365
451 10 8 -2.848287536481901 13.340392769384637 -2.8589753218004867
452 10 8 -2.2547748080829635 13.208552467721123 -1.8686834062204802
453 10 8 -2.70623856479716 11.710888392156443 -1.1252209395659138
454 10 8 -1.7918868685992853 10.598977342090649 -0.7403561464736018