# Generated from readdy-to-lammps

1005 atoms
718 bonds

10 atom types
1 bond types

-30.0 30.0 xlo xhi
-30.0 30.0 ylo yhi
-30.0 30.0 zlo zhi

Masses

1 1.0
2 1.0
3 1.0
4 1.0
5 1.0
6 1.0
7 1.0
8 1.0
9 1.0
10 1.0

Atoms

1 1 8 -15.367492869038117 -10.26784325614907 -12.428573244773242
2 1 8 -14.794368880944663 -8.375468943408762 -13.148916499829978
3 1 8 -14.945540047868121 -9.407554516035859 -13.248370914590298
4 1 8 -13.609476209384624 -9.759710503667081 -14.515178759356084
5 1 8 -12.301576353796785 -9.242042362358346 -14.66792677685083
6 1 8 -12.00118227858601 -8.324323314474727 -14.26940932635219
7 1 8 -11.574277346855643 -7.1959060244011015 -13.903410151762747
8 1 8 -11.004375507738716 -5.960378071322314 -14.40886882549766
9 1 8 -12.118958270062878 -5.9845823265419575 -12.968589628569376
10 1 8 -11.864897878024482 -4.328025226710259 -11.424041910292402
11 1 8 -10.692379976437577 -3.642917585186754 -10.815427920021465
12 1 8 -9.560661177552413 -5.097635576011157 -10.89606058679236
13 1 8 -8.972248261168367 -5.926236386612584 -12.364511654169762
14 1 8 -8.21038184691471 -4.841092911039108 -11.760506380692679
15 1 8 -6.881877113032513 -4.217279043383721 -12.316083255192781
16 1 8 -7.081135645040848 -5.356010536267271 -13.375165405600889
17 1 8 -6.7265308953646565 -5.377443838147433 -12.39194566145191
18 1 8 -7.065126932020407 -5.7438537303048305 -10.837002010599967
19 1 8 -7.574076214023239 -6.746886567062821 -11.272164673910277
20 1 8 -8.784940112324858 -8.22317727536144 -10.001129771687015
21 1 8 -9.84854777085924 -8.673357747796826 -9.48325303550716
22 1 8 -9.106069397660583 -7.961661208609982 -8.469706577111939
23 1 8 -8.039225481124396 -8.376817065535308 -8.1653230394477
24 1 8 -7.695341619923485 -9.565114163010065 -7.780619112815593
25 1 8 -6.645830020910889 -8.469793952755234 -7.523134503347202
26 1 8 -7.225979699217233 -7.247114123804417 -7.759842529349624
27 1 8 -6.286570084195842 -7.545730472677289 -6.702712375475395
28 1 8 -5.129098030685726 -7.640698638105032 -6.289770255887561
29 1 8 -4.610048439176126 -7.823271034446584 -7.543224770721282
30 1 8 -4.374596487564652 -7.226992039984435 -8.787512495407004
31 1 8 -4.106279450707219 -5.368963030695846 -9.525504534121307
32 1 8 -3.8068698965606997 -5.865652920475781 -10.777301610958764
33 1 8 -1.821706120510066 -6.006409411830102 -9.987849172129135
34 1 8 -2.230236922254081 -5.664749466188245 -8.735358470738227
35 1 8 -0.7745237020190388 -5.943490542708215 -8.922208499084942
36 1 8 0.003917288267982397 -7.036858766273023 -9.176018386456262
37 1 7 0.5951118684887006 -7.510334680367019 -10.237777241266496
38 1 7 -0.2762734938228593 -6.559008944622318 -11.172829799332789
39 1 7 -1.2278026873825467 -7.269792095028906 -10.619226021250519
40 1 7 -2.689215022040482 -7.312517839362932 -10.610535448979967
41 1 7 -3.3574709013610113 -6.502259618841672 -9.944366125378632
42 1 7 -3.6034997869391687 -6.7535439215422715 -11.203151063811585
43 1 7 -4.163247128546334 -6.857118467079915 -12.543627284499525
44 1 7 -4.218120414313004 -6.812724990845736 -13.95749102620614
45 1 7 -3.3276874428840757 -5.535796227281574 -13.209587973312138
46 1 7 -2.3573432246571633 -4.937378702675998 -14.85953738548816
47 1 7 -0.863000015993441 -3.9187501082846303 -14.437641247806132
48 1 7 -0.9670691456339048 -2.3620898760686004 -13.688526276528957
49 1 7 -1.6911915550296173 -1.2877260847035201 -13.64374764731439
50 2 8 0.8834771272394825 -1.5227753046454073 -2.8579073649908646
51 2 8 0.6205151534284415 -1.7247566080197325 -1.5361977103979634
52 2 8 0.5684944319237585 -3.1070467350435553 -0.9786101387823382
53 2 8 1.7374553123843195 -3.370417445603572 -0.21661599552125493
54 2 8 1.2646578013230765 -4.81132557568971 -0.22908464800675565
55 2 8 0.06540461710208645 -5.3691717321069 -0.24232249272891823
56 2 8 1.1773153433850274 -6.274348456944439 1.096643263612211
57 2 8 -0.08673959650390317 -5.531430400124817 0.874108302332459
58 2 8 0.5470969120349535 -6.013587476279185 2.0700823375163564
59 2 8 -0.23412697032112328 -5.679395581616242 3.534849416970135
60 2 8 -0.5715142430622976 -4.920126399457496 4.630880638911413
61 2 8 -1.727605039201677 -3.7181188864636896 5.610242689449662
62 2 8 -1.0638190213353547 -2.738806122289825 4.8311160342232125
1007 35 4 -2.528786339887352 -4.991141573366619 4.019062349280695
64 26 8 -0.7631748555101832 -4.508912244450838 2.7671534877300448
65 26 8 -1.5141252746974416 -5.506939332998065 1.9274760273504616
66 26 8 -1.7967881011221274 -4.706837089067248 3.0733362029072344
67 26 8 -3.0073309391975256 -4.943092460012202 2.7379168117154347
68 26 8 -2.7140499732313272 -3.564960379233975 2.572493713284443
69 26 8 -2.439403907994285 -3.6532906141604573 3.8470938117454585
70 26 8 -2.754111724086115 -2.6218173236454048 5.152575896496986
71 26 8 -1.849418991186692 -1.4228132816920667 4.727281099439493
72 26 8 -1.2118179350582077 0.07680996725600513 4.94615278991455
1009 35 10 -2.2523104281520836 0.6795447940538148 3.5800537933364343
74 26 8 -1.7309008886024528 -0.5551345650684039 3.1918453118787773
75 26 8 -3.177747162912163 -1.1453444271914524 2.667144764740661
76 26 8 -3.6420274234887624 0.30711716667234185 1.9468227158553957
77 26 8 -4.066415896935787 1.7966386932926572 2.443258130342901
78 26 8 -4.874382810688032 2.3712820229951044 2.227236400244984
79 26 8 -4.765617881615966 0.6123112837102066 2.655655847351816
1017 35 10 -4.051637105706789 0.5826618365329154 3.7914987473675565
81 26 8 -3.628383618586797 1.6871476469192859 3.525972007698974
82 26 8 -3.530221517153936 2.5676898564961825 2.7162736696907226
83 26 8 -2.8494469022527817 3.56701756378739 3.0875125676294286
84 26 8 -1.707175766710423 3.472648602570172 2.6504026880927443
85 26 8 -2.2507551114999784 1.8782518998305855 3.508441360391131
86 26 7 -1.0410996191128834 2.3216557878044695 3.0813147693323635
87 26 7 -0.5333243282956649 1.222482743153766 2.0839462650861
88 26 7 -0.5345182165353304 -0.5056820183307874 2.315938824896233
89 26 7 0.19511944406283224 -1.919715939183654 2.481995903219147
90 26 7 0.8036940696747807 -1.4964674799731237 1.412037551496486
91 26 7 0.4683150231624774 0.23830654086821043 1.2038369897914452
92 26 7 1.14653281084368 0.5403646204950476 -0.06381977523274913
93 26 7 -0.6042447744791339 1.1490645154771233 0.600834908384151
94 26 7 -1.0929935067339602 0.16424407773317376 0.41576016890297657
95 26 7 -0.39007000284961335 0.19014048747921683 -0.5276384755712783
96 26 7 -1.6189888339754301 -0.2594262991897787 -1.3452623779666883
97 26 7 -0.4913217367450922 -1.5779307250854027 -1.2308700668501273
98 26 7 -1.4435316491083683 -2.3413496104224025 -0.34030453656699644
99 3 8 -0.7915568456627545 -8.002834996845936 -0.41154765938595644
100 3 8 -0.8304201694675684 -8.399511403847088 0.8999987685487504
101 3 8 -1.4791189670268212 -8.533911279333479 1.7803336761581725
102 3 8 -1.4436461503366569 -7.215509923594943 1.2511282972399043
103 3 8 -2.8668878418867183 -7.40727108190218 2.2555895155026673
104 3 8 -2.4142224584415146 -6.573053853780928 1.4689118094994553
105 3 8 -2.6258588426789347 -7.456834041993464 0.2452499268412585
106 3 8 -3.614032781952388 -7.075944125174942 -1.210770895585422
107 3 8 -3.0676267466070555 -7.6317289873957606 -2.189002605253584
108 3 8 -4.3106802782015885 -7.985222042088692 -2.1146817007276333
109 3 8 -4.383742110869973 -9.48853168588887 -1.7448972906482156
110 3 8 -5.13739942722518 -8.585614725509197 -1.7283855463614513
111 3 8 -5.274200112842449 -9.963097943471096 -0.7801976260720366
112 3 8 -4.629153703758651 -10.589527801433935 0.4483894781238401
113 3 8 -5.82557756354498 -11.385530594924663 0.710688778216604
1024 35 10 -5.40587422038391 -12.433266203492376 0.09056925367442936
115 3 8 -4.668075777902817 -11.725372610965154 1.639107451296907
116 3 8 -3.8058096511625097 -10.396835490966815 1.3398360032910213
117 3 8 -3.302030375796606 -9.30277314465314 0.8598579386559748
118 3 8 -4.605699408012 -8.263118466592706 0.532391546729246
119 3 8 -5.4475221258327355 -8.41332741179051 1.8949954914200626
120 3 8 -4.689282228771976 -8.415845639983559 2.9569923693414712
121 3 8 -3.788067437853788 -6.680542577144435 2.859265865567114
122 3 8 -4.400854272084714 -7.127771455862883 4.4450632167491415
123 3 8 -3.8353051468470154 -8.138710863776845 5.356625265650026
124 3 8 -2.8617742300519295 -8.258312847272807 6.299247928699185
125 3 8 -3.0284760880657746 -8.333236420055115 4.606927205809301
126 3 8 -3.1536446684011237 -8.585908118728451 3.4846209571433993
127 3 8 -2.403608626048068 -9.946284077894294 2.376517819313616
128 3 8 -3.2003674188029922 -11.10238294195292 3.635576553965278
129 3 8 -3.629797301450084 -11.715030165384823 2.7767833751689173
130 3 8 -4.870633688027108 -12.718076717734103 2.977943753292363
131 3 8 -6.136036582426644 -13.025492912561019 3.882260813289901
132 3 8 -7.126490083710105 -13.66057037363091 3.902945397995913
133 3 8 -6.838931364636826 -14.695163094127976 2.6787253250970444
134 3 8 -6.266221876503162 -15.017641635396988 1.3157093337730332
1025 35 9 -4.343054565602469 -15.057907438541694 1.4883429965368973
136 3 7 -4.922957059542968 -16.340236393186743 2.1182618944754936
137 3 7 -5.233236312880316 -16.324541631616015 0.728799101941675
138 3 7 -6.093087264520941 -17.123061449047455 0.2142383757155093
139 3 7 -4.817684450474151 -17.36878930614387 -1.4487178411862633
140 3 7 -4.236475164858964 -16.500161268143895 -0.5271992685920672
141 3 7 -2.72693574980719 -15.635863829667398 0.039249658876770364
142 3 7 -2.0352277117739637 -15.308072159989413 0.7818973544146847
143 3 7 -3.03393748235409 -15.561178716556611 1.9251946185145694
144 3 7 -2.0869334934732167 -14.498629017942703 3.5550451957425984
145 3 7 -4.075169947445543 -14.400523430072607 2.880242503226994
146 3 7 -3.4051291443601284 -13.304859074206638 3.595627880519789
147 3 7 -4.329939966084518 -12.217553416875779 3.9977251810201064
148 4 8 -0.2489377308179494 11.22161536071623 15.801757079034978
149 4 8 -0.9599139336119844 11.553310888545186 16.652214406787095
150 4 8 -0.5231188716472831 11.188773962894134 18.48902052146237
151 4 8 -1.6498769643221536 10.373462803150463 18.312094975391986
152 4 8 -0.785952963628213 9.863825544606726 17.658341716669025
153 4 8 -1.671599167139727 10.285684652793796 16.62959400260086
154 4 8 -2.990240243848978 11.22848583980048 17.57866733863986
155 4 8 -2.836106199923894 9.848865523098072 18.017122390496045
156 4 8 -2.888388888489693 8.899594014522815 17.36837913663112
157 4 8 -3.8201947555180853 7.669382546724853 17.023009882387246
158 4 8 -4.657603392179487 7.034520329684659 16.43294782222849
159 4 8 -3.143459423931686 6.393198534619676 17.196820131929346
160 4 8 -3.3894750673192817 6.402001069283179 18.494963332793613
161 4 8 -2.2192117670842886 5.646205683094105 20.16073089589145
162 4 8 -2.367994962443309 6.567320754709984 20.743139482816673
163 4 8 -3.6495776595280227 5.8125121147842655 21.328815382075245
164 4 8 -4.959907246096932 6.173399328972019 22.626649067122116
165 4 8 -5.154001450640576 6.804540424754251 21.603920075930027
166 4 8 -4.701985039732097 8.22260498384712 21.466912314226036
167 4 8 -4.684693608212986 7.950710814761058 23.020727400032783
168 4 8 -6.164644602267967 7.188324028868589 22.60909574928201
169 4 8 -5.474814510865697 6.7731096336686605 23.47108658041033
170 4 8 -6.192656937184302 5.7162457157217235 24.643691440466096
171 4 8 -6.0020802566368285 4.5467207028334755 25.413747693417886
172 4 8 -5.079717596390943 4.335475654730452 24.20325728654639
173 4 8 -3.462903572991456 3.7761617441713176 25.48764760968
174 4 8 -3.7210518848840914 2.265868683606716 25.914083899068036
175 4 8 -3.2606525204028274 1.1304294768978593 24.293047627708518
176 4 8 -3.13789965815401 -0.47088917422098825 24.52773123114634
177 4 8 -3.57549847835678 -0.8192210606852635 25.479322112999075
178 4 8 -3.227821051923006 -0.35755136695142786 26.666240985457428
179 4 8 -4.294718681901078 0.2908223470111502 27.061568083173217
180 4 8 -4.331125734761473 0.23374930105534455 28.449058918594748
181 4 8 -3.9070509661022164 -1.2867209997306932 27.53090891609727
182 4 8 -3.0039403964083364 -0.13206190776190027 27.929523521758863
183 4 8 -0.8869391224324353 -0.7700945538346634 27.806093054572084
184 4 7 -0.10175548634077534 -0.4817860057993292 27.047121177229606
1028 35 9 1.270111414858843 -0.9729543478748066 27.508354885462015
1023 35 9 0.6798898380706627 -1.9449880927563281 27.115284731596237
187 4 7 -0.6395765736569596 -1.860525225687643 26.48421125305157
188 4 7 -1.388528459450074 -2.6766650010726143 25.34379271166113
189 4 7 -1.4940050674752494 -3.221093843018432 24.448923963824843
190 4 7 -2.7686766772928495 -2.6456855962386885 23.483111311171825
191 4 7 -1.2578352226500518 -2.5979073828767327 22.177911745513224
192 4 7 -2.0191187569866678 -4.281856526706845 22.328840941104094
193 4 7 -1.3110693090910588 -5.288896974361605 21.497561307678705
194 4 7 -0.595109854008159 -4.806277926343209 22.76171539448869
195 4 7 -1.7809079728299748 -5.702851425749762 22.657506337716892
196 4 7 -0.9325020657522405 -6.785229695809399 22.65982673143312
197 5 8 0.6910831916500495 -4.502594361177936 13.138863116460032
198 5 8 -0.3928254997286206 -5.516632272509402 13.415878949091544
199 5 8 -1.106436473635769 -4.037677300425685 14.948912820003462
200 5 8 0.16164784181583486 -3.615630964785953 13.869499792367938
201 5 8 1.5870509942162647 -4.287351070273627 14.095109602674341
202 5 8 1.462816566178449 -5.079468996601855 14.80972194703453
203 5 8 2.85636804529069 -4.2172366475911645 15.020837003033002
204 5 8 2.7098570329610134 -3.7877326373599742 16.047457595369163
205 5 8 3.044013104092804 -2.761189309216188 16.862179603731683
206 5 8 3.2126003591691688 -0.7432611112581395 17.023575138663762
207 5 8 4.444699746338613 -1.5663308748432305 16.311036453249503
208 5 8 5.433614272397841 -2.1909644154878705 17.460999359863955
209 5 8 5.223634014275773 -2.9633042088036716 15.614310816733552
210 5 8 6.195650454133749 -3.4835137050627525 15.60556475215063
211 5 8 6.135537200330567 -2.390479905946909 15.030193729649653
212 5 8 7.618648989446126 -2.712996464690404 14.358021827780641
213 5 8 6.902081558150862 -1.0420226511498323 13.208801620518736
214 5 8 5.619656008590613 -0.16959018911495335 12.217273702264626
215 5 8 6.877747272934086 0.6793445286402781 11.709068918795603
1019 35 10 7.5644461989622815 1.7588180227110883 11.722725385703004
217 5 8 6.558193574522444 2.0580933442227294 11.354617069870976
218 5 8 6.471240757508069 0.9394210377814116 9.982480675071352
219 5 8 7.537570844453339 2.0772961825200684 9.319372242674305
220 5 8 7.6798187237806745 0.883240194494265 9.034792820466173
221 5 8 8.184507604786258 -1.0309346156316286 8.529682407868355
222 5 8 7.232254597714145 -1.5707091375996818 9.564393956667464
223 5 8 7.094049273376117 -0.1814178882488946 8.649944819397133
224 5 8 6.923913223301144 -0.13293152696364965 7.033570450960641
225 5 8 7.836868803110353 0.6872934735999107 6.523248818970466
226 5 8 8.355644821816705 0.9771537342755563 4.755436430973491
227 5 8 7.411730328675268 2.0360976897519563 4.387925116978275
228 5 8 8.40274933129924 2.7565872349417466 3.6571574942545952
229 5 8 8.441094217486215 1.7660365820176118 3.896654725815868
230 5 8 9.451097123891751 1.3161332829244203 4.265463413650312
231 5 8 8.49109271708895 -0.14760935161468575 3.5958373020605765
232 5 8 8.036954316834867 -1.4562227996241717 2.7192419446673384
233 5 7 9.27887384513203 -1.3668271051039347 2.7635560180144947
234 5 7 9.41043672460474 -2.3673110445810392 1.888607285498131
235 5 7 7.733909752212788 -2.9220553206889597 0.8283167010397108
236 5 7 8.264225726571889 -4.757591302809443 -0.048861187082962304
237 5 7 7.9206604152786415 -3.876737310388233 1.2912786568375418
238 5 7 7.287339898633242 -4.61742453287881 2.120134030440218
239 5 7 6.004590213687876 -3.868567967343207 1.0241294842676045
240 5 7 5.5323808914015915 -4.042066230487379 1.971837399665944
241 5 7 5.499666294560899 -2.772692379698116 1.4682540500059462
242 5 7 5.996034467529062 -2.914903160978261 3.592819970076668
243 5 7 6.236974513816117 -3.1576486940214368 4.641745519457273
244 5 7 6.42466649380448 -1.4643881566069166 3.5736786693922076
245 5 7 5.191655560322556 -1.4148636693856753 4.147688266880557
246 6 8 -1.4602291805209888 2.316925747307051 4.7375098821902775
247 6 8 -1.6338641282409623 3.389696338838812 5.032369108660346
248 6 8 -3.0628860038705326 3.682950524119419 5.216081229780863
249 6 8 -3.9552659880049235 3.7393981726439276 3.595930636030322
250 6 8 -2.3863690255571353 4.523934860928331 3.0979467857277605
251 6 8 -1.488481127783604 3.992695840927457 3.8623028283274694
252 6 8 -0.6300094602812795 3.050601133321599 3.668711244096142
253 6 8 -0.39182744090013866 3.8105271982945874 4.33207226947837
254 6 8 -0.710197618216462 3.7293150962003123 6.391708901746202
255 6 8 -2.7489124779124783 3.3336008666105377 6.330779513540212
256 6 8 -3.349208664795163 4.694563316736234 6.92015821069147
257 6 8 -3.041084311420459 5.733374304569618 6.759719960508198
258 6 8 -2.7427714722161682 5.672505755322307 7.98158422736166
259 6 8 -3.760471705850398 5.750548630011632 8.288702698839638
260 6 8 -5.018644682183205 5.857821326882104 9.474406973575297
261 6 8 -4.484654240696118 5.127092049597581 9.025739223287534
262 6 8 -3.0119497876704213 4.916804180385612 9.483006612509598
263 6 8 -2.25240377529679 4.026160700368471 10.539121871887154
264 6 8 -3.33766915258116 3.178695104798844 9.868718588456263
265 6 8 -3.012739319757267 2.1909243318551668 9.078596640588305
266 6 8 -1.4350430318141658 1.4854918100131007 9.881385818528113
267 6 8 -2.3627135505243926 1.0285607854664056 10.629571713842004
268 6 8 -3.3414167189066912 0.2037886476652779 11.390197020781963
269 6 8 -3.0572695715340927 -0.11163063075210489 10.453654754615464
270 6 8 -2.485795076271725 -0.42860341644051553 11.618556760691648
271 6 8 -2.5853161438982353 -1.9454720207157523 12.109381168308706
272 6 8 -3.0474341756086196 -3.0174157293612187 12.398736609983526
273 6 8 -3.8827373554242235 -3.505905993659384 12.735668962631939
274 6 8 -4.043389993957064 -4.182869131681609 11.01393817951477
275 6 8 -3.028019885939098 -3.7360336441860142 10.363380963066655
276 6 8 -4.694502071176258 -3.0364947504190734 9.252536591338846
277 6 8 -3.341760535257748 -2.9335731447233293 9.1004574325694
1012 35 10 -3.5820785333993737 -2.014988488898898 7.766379494387447
1026 35 10 -4.640234011393233 -0.8046464805105594 7.611016420957047
280 6 8 -5.222404150105475 -2.0341560328451718 6.925805777290382
281 6 8 -5.885869187251241 -2.5745290615021865 8.04257385057369
282 6 7 -5.006186026018436 -3.1235460266060575 7.268488610334843
283 6 7 -3.964073719577305 -3.879635658788203 7.669073424092909
284 6 7 -5.277857385532377 -3.9350021753822717 6.394147017946482
285 6 7 -6.963341983920074 -3.2564003446926697 6.298812576101116
286 6 7 -6.529279994130744 -4.328702689770789 6.714445279881505
287 6 7 -6.143713349897585 -5.7394940311160525 5.755284097302278
288 6 7 -6.444965471334009 -4.710670021352073 5.444581285425595
289 6 7 -7.54307087722863 -5.239328361452754 6.092728827174342
290 6 7 -9.311040064583512 -5.820141458868161 6.143603228022203
291 6 7 -8.497538628598281 -5.838918513001582 4.839005297286013
292 6 7 -9.641346002916812 -5.02550295761871 5.222350357703467
293 6 7 -8.494671093407197 -3.7043253004087124 5.435916718665692
294 6 7 -8.114829264066982 -3.658459173683737 4.444295614120071
295 7 8 2.966893638533853 13.19096445678656 6.795023221684441
296 7 8 3.9246942607721604 13.113559118365606 7.790778931455914
297 7 8 3.358974157860856 13.234737418408855 8.632798133136395
298 7 8 2.220302229642913 13.032524299849726 8.458417178297116
299 7 8 0.40267016588555454 12.39657385481603 8.108892826898288
300 7 8 1.089728898554049 13.063480215892579 7.023389677693015
301 7 8 1.3415422181355319 14.28389014537533 8.494076185739116
302 7 8 2.3750190628093737 15.127257236019238 10.186757555658476
303 7 8 1.4226038312250318 14.62383009620102 11.299734946813544
304 7 8 -0.38643639223403814 13.94712725902802 11.171122618734204
305 7 8 0.7870852846581903 13.126696347628595 11.460580389459995
306 7 8 0.40754617492175266 12.133802341087579 11.327699609929102
307 7 8 1.4655091543898928 11.432098809927023 11.272767230845657
308 7 8 3.1998212650001774 10.80024578308895 10.9910127548056
309 7 8 3.2582203250364747 9.764929061915696 10.93588011026259
310 7 8 4.373854902484201 9.873953943370042 9.697215325032767
311 7 8 4.817514502551058 10.351476922911266 7.982901281387509
1011 35 10 4.508591120295252 9.305575347582689 8.160013054078828
313 7 8 4.267481841691799 8.378270180136521 8.718122865466716
314 7 8 4.142126164048063 7.3104101685572855 8.463661972448378
315 7 8 3.3120228863422576 8.072223083918745 9.107436731011141
316 7 8 3.171668307150244 6.802870523336063 9.959908621625088
317 7 8 2.937416234060031 5.333433836378767 9.355600326584707
318 7 8 3.158601245683508 4.129291722995181 8.010605360884588
319 7 8 2.1012807672660943 3.180847204826289 6.465068986512573
320 7 8 1.784914442903693 2.3932532093460828 5.337559224474041
321 7 8 2.572117289938417 1.2524469506929463 6.193563304141526
322 7 8 1.0142641201932652 1.5121177699049662 6.340067980050088
323 7 8 0.3410867695073298 2.227183163862834 7.290626343645283
324 7 8 0.49489529900309737 3.216637700593232 5.802103669870964
325 7 8 -0.04017501013107477 3.056085346946495 7.993871629643475
326 7 8 0.37552970372314204 4.1629213474365185 8.826589941394932
327 7 8 0.8741688256800095 5.146960464700738 9.30110749346045
328 7 8 -0.5659822683813664 4.846521545878728 8.994014823405639
329 7 8 -0.6060732101084082 3.18929415751378 8.987186015842308
330 7 8 0.2870538867614922 2.953889882197691 9.97904030072001
331 7 7 0.48521508387835516 1.691183404676536 10.45811668321731
332 7 7 -0.24459921029361564 0.8141975313219922 10.162265045265677
333 7 7 -1.0496323216363186 1.0716634935276514 11.207984081522524
334 7 7 0.599727192570553 1.8393686213346927 12.188606698200317
335 7 7 -0.19975344147382437 1.4966560588620774 12.816800555705573
336 7 7 1.4185406465460948 1.9659625703549863 13.562537303319408
337 7 7 1.7316640866354962 3.209978772951713 12.810082312077292
338 7 7 1.5460169409369022 4.86631056415748 12.362665830404302
339 7 7 0.44059821416820266 5.272609883457248 13.151305816567742
340 7 7 0.024238239133238085 4.4806409333438415 15.075605291004116
341 7 7 1.8577597429767685 4.71803955688111 15.710578266098521
342 7 7 2.065419085923716 5.824693854847313 16.53155908560053
343 7 7 2.821912956422502 5.4594832073361825 17.489065681067412
344 8 8 6.745224485515565 18.53762811334073 -9.419862223632105
345 8 8 5.674503115920008 18.677116209103993 -8.52895102493204
346 8 8 5.915723992028936 17.041385836586418 -7.598550888922025
347 8 8 5.450297708342835 15.791222752963767 -9.016863193604614
348 8 8 6.316986808603569 17.832699759957094 -8.689307047291889
349 8 8 7.09732607428143 17.478707776650374 -9.517686372665588
350 8 8 7.467303727340613 15.877744013964891 -8.328826746973734
351 8 8 7.0131641597339485 16.205936766585744 -9.533893987488316
352 8 8 6.404590123472274 17.109798963916315 -10.231933905791122
353 8 8 6.4523350338966665 16.47911223098438 -11.919203733267187
354 8 8 6.836668630084881 14.940365094200068 -11.195445339121022
355 8 8 7.45625817687026 13.91119253690624 -11.055370318712765
356 8 8 7.245784215815198 14.485261462678132 -12.756971168624206
357 8 8 8.262685831692208 13.963887938732366 -12.360090434742313
358 8 8 8.718059389592224 12.820203590106054 -12.095945877283489
359 8 8 9.168936294184427 11.682967159847543 -11.086626769791286
360 8 8 10.404069665061206 11.07910271073451 -11.7101026819244
361 8 8 10.88686030398026 9.096635242358614 -11.74559991630053
362 8 8 11.905241538565978 8.847037662935069 -11.828341287647083
363 8 8 11.579615933642877 8.871856567127265 -12.94531377221303
364 8 8 11.864084531024591 7.119051120464935 -13.019886264171435
365 8 8 11.05427179165877 5.990307071229454 -12.657207076609923
366 8 8 10.067108114658787 4.906498666601793 -12.879905697301954
367 8 8 8.74729154647706 3.5888207499012714 -13.50417422578134
368 8 8 8.113628031080331 3.3052033793993916 -14.542278322136394
369 8 8 7.215099520961707 4.626473179686783 -14.188914818509314
370 8 8 8.263096701095005 4.982965249264135 -15.516303402496062
371 8 8 9.12257533612286 5.4702537630513035 -17.156610241626122
372 8 8 10.613446116240208 4.687723497803021 -16.837800322174598
373 8 8 11.843521134030182 5.0046829085988005 -16.27064743884579
374 8 8 12.22568896438207 3.651967137189171 -16.556754906145045
375 8 8 12.207479723729405 2.0042960042744498 -17.2306520053678
376 8 8 12.263538584323754 3.5092158444834647 -18.498441440514394
377 8 8 11.720993265452584 4.288079619409609 -19.721819255364696
378 8 8 11.992934425946254 3.142147069969203 -19.526794375670285
379 8 8 12.575378644411838 2.097703280515064 -18.96563587574694
380 8 7 13.857291146354116 1.6436888567631454 -18.83320293226498
381 8 7 12.863696043255628 0.7090571016904912 -17.94602192164366
382 8 7 12.684302342854618 -0.25391580077976633 -18.773326763682928
383 8 7 13.494650651344152 -0.8231625430758988 -19.492079810496058
384 8 7 14.471253703624868 -1.1643797847112054 -19.9881850108464
385 8 7 14.345772289662474 -1.1554363226004414 -21.38473819503471
386 8 7 14.270434419708591 -0.327402029160294 -23.35954110113502
387 8 7 15.022864895742634 0.8298063079305764 -22.194523532490486
388 8 7 15.693253480894485 -0.5477853688576315 -21.08465607523864
389 8 7 16.34939119541071 -1.5669032372078437 -21.310792204487345
390 8 7 17.316571533015896 -0.5742013868117735 -21.325302294440355
391 8 7 16.68545614012778 1.3475487132554447 -20.936688365861965
392 8 7 16.81668960178621 1.0914206174755723 -19.631356481701822
393 9 8 -4.510458378624149 -3.5692561765299553 -16.326894667196445
394 9 8 -4.94108276026911 -5.208564428836081 -14.209908703937796
395 9 8 -6.712959279852612 -4.091614314638253 -14.24079756408627
396 9 8 -5.715474822422089 -4.059557931368843 -14.47848012112488
397 9 8 -6.5738389741274 -2.709443777797734 -14.015670299694216
398 9 8 -8.049042802853059 -2.7300723575197385 -13.922301871398346
399 9 8 -8.513988544706397 -2.5556818476837946 -12.658092461628682
400 9 8 -7.406629252392327 -1.8961990726234503 -13.130219439948206
401 9 8 -6.79233837344691 -1.397455872195137 -12.443089399669264
402 9 8 -6.566853134238901 -0.5993221578154951 -13.150656672373314
403 9 8 -5.465405184915357 -0.6548305269362276 -13.253641960623975
404 9 8 -6.0303576035915585 0.15782814405097406 -12.02065380207267
405 9 8 -5.421016747941403 1.2378975153962897 -11.290019698170791
406 9 8 -6.648308907537613 0.7882995664580602 -11.193297882134452
407 9 8 -6.94770039301028 2.1417351449345206 -10.493562228511086
408 9 8 -6.5588437666921635 2.03190439750485 -9.174592655783696
1010 35 4 -5.665113301047794 1.4413121761815688 -9.430905373005073
1022 35 10 -6.218886295977017 1.0387706528168368 -8.38798515998174
1016 35 8 -4.501914180306077 1.3589223816111589 -8.00093735173367
1029 35 10 -5.201583083575807 -0.3063944446131436 -7.411906849324682
413 30 8 -3.880375130629385 -0.6553255106676624 -8.749270297201864
414 30 8 -5.433338674370728 -1.276151258636936 -8.38525690549786
415 30 8 -6.319995880284933 -1.0894084608593104 -7.783336808237685
416 30 8 -7.053351627727827 -1.0563729486650901 -6.209912123770151
1021 35 8 -6.5201087860431945 0.9445151425721517 -6.309404874391043
418 32 8 -7.488114287712327 0.39089292452366714 -6.693593503646708
419 32 8 -8.655466245683 0.025631025991314293 -6.636177397349682
420 32 8 -9.600114852567403 -1.3369838163942347 -6.282730269092834
421 32 8 -10.630485125186603 -1.2728357788104532 -5.699224059883627
422 32 8 -12.241785589788947 -1.7658708308959687 -5.477382744731581
423 32 8 -10.581969010260444 -2.89352359355635 -5.59355202044108
424 32 8 -11.338751807945853 -3.7303468675252653 -6.8235732045327975
425 32 8 -11.733756709082797 -4.494076898880514 -8.234653211067855
426 32 8 -11.22990262808852 -5.394806299073393 -7.573206321214058
427 32 8 -11.911340304324371 -6.351051726367962 -7.090641236131216
428 32 8 -12.464874272274539 -5.151616728316014 -7.438682828215946
429 32 7 -12.371812966454552 -5.5672899697034115 -8.864747329849749
430 32 7 -13.148425433353696 -4.456411356262955 -8.95980440845366
431 32 7 -13.936628414145341 -5.230457548349931 -7.681409207187707
432 32 7 -14.101906435818401 -4.772564678909004 -5.523473577495442
433 32 7 -14.482770037878515 -6.0888993480076135 -5.452952335169438
434 32 7 -14.48027106492751 -7.08564966760804 -5.860798808756426
435 32 7 -13.812883885569397 -8.656826499126954 -6.3535246005411725
436 32 7 -14.73981074463368 -6.915349488582133 -7.897483782845872
437 32 7 -14.80255362816929 -8.23610434035881 -8.001226866419312
438 32 7 -16.03065986463614 -8.125106049494532 -8.056153329967042
439 32 7 -16.948626702840112 -8.49377763705189 -7.1448184734037286
440 32 7 -16.392981039217645 -8.713579738770266 -6.019615505118782
441 32 7 -15.965680550875708 -6.83476455804588 -5.992872655667815
442 10 8 -0.10937144188880796 15.485573289879365 -0.9616414078177851
443 10 8 -0.678131360736452 16.616260102233962 -0.8470604253319254
444 10 8 0.2972069718839489 16.653737281770386 -0.9909103061076001
445 10 8 -1.5081300673649123 16.845989861685307 -0.2730629604588178
446 10 8 -2.1424944502788628 14.80535807417765 -0.8127305355201637
447 10 8 -2.401060612335585 14.488227464703446 -1.913201863128115
448 10 8 -3.941154753705768 14.87035159660502 -0.7612657455728619
449 10 8 -3.5100403811388046 13.669144513799557 -0.5031664766613622
450 10 8 -2.9005090312928865 12.608709330131196 -1.0317186513899606
451 10 8 -2.227720698471558 12.659164757211418 -1.8272544428837254
452 10 8 -2.2417967421751173 11.717442567002898 -3.392107946637796
453 10 8 -3.1646815296231674 10.419080505340757 -2.802466180247272
454 10 8 -3.60938942544235 10.294396873075774 -1.7690204023400669
455 10 8 -2.7320958952191567 10.141515303353692 -0.7422563118939717
1015 35 10 -1.952808658828565 8.953653320845905 -1.1661832773895395
457 10 8 -2.2617139372085275 9.709663357010013 -2.153715702405011