# Generated from readdy-to-lammps

1005 atoms
648 bonds

10 atom types
1 bond types

-30.0 30.0 xlo xhi
-30.0 30.0 ylo yhi
-30.0 30.0 zlo zhi

Masses

1 1.0
2 1.0
3 1.0
4 1.0
5 1.0
6 1.0
7 1.0
8 1.0
9 1.0
10 1.0

Atoms

1 1 8 -14.551187034412981 -8.453785512548814 -11.349245804654874
2 1 8 -13.984906281810625 -10.009379669782673 -11.61077200504297
3 1 8 -13.86095222342272 -10.568598048295376 -12.673495066329973
4 1 8 -13.55911085319999 -9.390141955188206 -13.88757349082138
5 1 8 -12.474095006671561 -8.728503794732873 -13.870245197855567
6 1 8 -11.79327885533308 -7.900493381192578 -14.405381349610279
7 1 8 -11.903743391644737 -7.375768566995657 -13.377882088381549
8 1 8 -13.01473856505647 -6.132669373732931 -12.883409708144537
9 1 8 -11.5401596666113 -5.678044461840261 -12.292392073893026
10 1 8 -11.299086597705758 -6.105157193041082 -13.444142493010355
11 1 8 -10.267230881050661 -4.783527842541513 -14.152725323032355
12 1 8 -9.694070763419619 -5.12089969956785 -12.502461543067094
13 1 8 -9.140595600325655 -5.757887110014393 -13.475954379674198
14 1 8 -8.051391066873196 -5.039989324510769 -13.235080071092462
15 1 8 -7.707836913282762 -6.798214551772264 -12.270968509931878
16 1 8 -7.335511430064141 -6.702645408826634 -10.764194445166224
17 1 8 -6.266693219666875 -8.159709824175016 -10.377564161623049
18 1 8 -6.885781823663172 -7.547273049716902 -9.195324787082399
19 1 8 -6.995351347425395 -9.077813343149629 -10.060301821906362
20 1 8 -8.018328151694844 -9.02569399167463 -8.92629402816876
21 1 8 -7.738653830984434 -7.98574435650647 -8.401426447105615
22 1 8 -8.647551925132165 -8.430477491478642 -7.306289359681965
23 1 8 -7.213653051101616 -8.541365647336779 -6.4431599430591175
24 1 8 -7.432176495465565 -10.303993388431103 -6.83914603505329
25 1 8 -7.235254748031115 -10.105754447966321 -8.184869349962916
26 1 8 -6.013355420481753 -9.970255703352274 -7.7954288872574145
27 1 8 -4.546513935421742 -9.226480333921938 -7.31590164248349
28 1 8 -4.029357361619048 -8.092122049363736 -8.795252223258746
29 1 8 -5.184347341225132 -7.345150102074995 -8.917572072465102
30 1 8 -3.96033720071371 -7.847043706395441 -9.977853114981588
31 1 8 -4.581615968956039 -8.893350248466573 -10.942875451366945
32 1 8 -3.3361243683475776 -9.532241504937474 -11.015412113101348
33 1 8 -3.1356380805281434 -8.158031399312382 -11.325644545679296
34 1 8 -2.274319425010463 -7.414731155623497 -10.571043092390026
35 1 8 -1.7096662489774654 -8.622118340127814 -11.209833020498472
36 1 8 -1.30628990553109 -9.0573635765648 -12.441844428545279
37 1 7 -0.3121807181290737 -7.888957744469082 -12.542243353356332
38 1 7 -0.24550863394137187 -8.725186307115367 -11.518209281317699
39 1 7 -1.550056163668219 -7.5674499819129215 -12.347919023959319
40 1 7 -3.6544448237123683 -7.055420265873556 -12.15764832140279
41 1 7 -3.902252928190963 -8.631345100275713 -11.803984225810748
42 1 7 -4.777288930526778 -7.764506979068809 -12.356919178934737
43 1 7 -4.862603165475701 -7.564610261049842 -13.579206784045006
44 1 7 -5.112700739722789 -5.422964315634021 -13.058319101901748
45 1 7 -3.8412344478582616 -4.293417704316838 -12.925449545253288
46 1 7 -3.1339464503368832 -4.7416200813350295 -12.152691281094443
47 1 7 -2.8824525560895093 -3.192462013840112 -13.242079709301867
48 1 7 -1.9878423499185758 -3.5985670886569436 -12.391231399214275
49 1 7 -0.5472079648684495 -3.470382219762463 -12.432920727493482
1050 59 4 -0.8269924129142847 -2.733227793349225 -0.012233027937325992
51 59 5 -0.024782690783477133 -2.317151626251645 -6.1322179735172595
1046 59 5 2.654611050788929 -4.940732211020508 -2.074622506529035
53 59 5 -1.1034491270296476 -2.6488240697800447 -2.1116011256008465
1042 59 5 2.2445827060223627 -5.488355310913482 0.719397618448974
55 51 8 5.328477494022372 -6.855352985221258 0.2256240815363812
56 51 8 3.408149104298163 -6.74800778456573 0.2927160107929692
57 51 8 1.7733209799244007 -6.9033713459072485 0.15298153713278004
58 51 8 2.232484637369255 -6.709243869910767 1.8070707363161138
59 51 8 1.0779975007687863 -6.3214142509471865 2.1339269512536982
60 51 8 1.2652755622144634 -5.335583150975814 3.055256811485517
61 51 8 0.7020968288688842 -5.118051697683018 4.004295587994186
62 51 8 1.3440880964432933 -5.946781845400145 4.685568017680352
1007 59 4 -2.1382678007878413 -8.263609923259688 7.288099225282372
64 26 8 0.23687519907251986 -4.958868983144533 1.3329311858453006
65 26 8 -0.8574699532896026 -5.008535370671914 1.3295046491880051
66 26 8 -2.068443402742053 -3.9694350937687544 2.027851933367308
67 26 8 -2.613944266670387 -4.725192303880854 2.6195447722164027
68 26 8 -1.3493255100538741 -5.013351663527701 3.737258678544874
69 26 8 -1.1180122897506286 -4.086715524565764 5.089170798942719
70 26 8 -0.33958901623313226 -5.6167816907306545 5.2783859632742836
1036 59 4 -0.3041237690291134 -3.289695692465125 3.3325072489667846
72 59 5 0.04996139196028179 -1.4060248798353592 2.807351701302621
1009 59 4 -2.456281389012406 -0.30303372507937165 7.589621077000128
74 53 8 -3.010464018071555 1.6802838350789253 1.0824060770157111
75 53 8 -2.052376829840409 0.6102633986669733 0.4977216801874497
76 53 8 -2.8362404183640972 -1.1916110085175993 0.6888039785932362
77 53 8 -3.721307672661897 -0.4386521957579477 1.6426506869222728
1074 59 10 -4.478160118785699 -1.3110698800364629 1.9569663157428454
1037 59 4 -4.467869872290695 1.4142825362238736 5.821722971676809
1017 59 5 -5.723624312153075 0.5152082203375249 3.5481471796049178
81 56 8 -4.690955804053048 3.4985337926724913 4.407151940221987
82 56 8 -3.43204463241384 3.777691317320333 2.4100251429569406
83 56 8 -1.657703914079278 3.2180360499643457 1.8318945707961984
84 56 8 -0.3962271786948721 2.5083295473916913 1.9681467063731444
85 56 8 1.112854618934897 2.7719301544719954 2.1201234681299495
86 56 7 0.5555859327341574 0.9811972258806386 3.1691815052196097
87 56 7 2.084875232593486 0.3416594589997055 2.621266260775589
88 56 7 1.4457826355458627 -0.7462573649411534 2.8981456067497033
89 56 7 1.3020561250917346 0.2686541000617932 2.000110074556674
90 56 7 2.3946540580546065 -0.699912763950904 1.5807013623937012
91 56 7 0.6083754300601676 -0.7948957382486346 0.4284899562913782
92 56 7 0.7210770096533018 -1.0938421144054649 1.4479716545147072
1044 59 4 1.345544325136196 -0.9929859519992981 -0.985958077807197
94 55 7 0.4718527664062615 0.6780546178425477 -1.1484547461276886
95 55 7 -0.9643650991258926 0.6759642767878514 -1.5079042310375286
96 55 7 -1.7847848193998477 -0.6558024909312672 -1.5412687359291812
97 55 7 -1.5321151814441816 -1.6362082162105362 -0.6551617626876807
98 55 7 -2.2886332560361806 -3.0011624870229228 -0.8056345014130947
99 3 8 1.6238140812561372 -7.738576928237783 2.4400829274964533
100 3 8 1.679847748622439 -7.901261137826099 1.3214450731242284
101 3 8 1.1068024798455383 -8.936088613068836 1.7881569024430508
102 3 8 -0.3766595091225092 -8.413469074843823 2.0640961370301287
103 3 8 -0.9794397202012464 -7.912600417520167 0.6978038674409867
104 3 8 -2.1789104281361396 -7.278256042826797 0.8034311287701872
105 3 8 -2.4618505384653933 -8.585274188459145 -0.15041970046829445
106 3 8 -2.2144787583233234 -7.40792125114211 -0.9323281289689557
107 3 8 -3.0804578842483434 -7.591392202802873 -0.35859546470881415
108 3 8 -3.832593565021668 -8.215934023900482 -1.0545795489833742
109 3 8 -4.218803947287389 -8.782466378901924 -1.8511790687224312
110 3 8 -5.814102373025395 -8.688248325431422 -1.842823228880128
111 3 8 -5.731418250502347 -7.378616983374425 -0.8704401461787444
112 3 8 -5.58026316883732 -9.100754317284421 -0.8300186213164037
113 3 8 -6.237211223916956 -10.178758746991726 0.1015691601176244
1024 59 5 -4.099400414971904 -11.443832121486354 -1.1072398775471088
115 41 8 -5.2835362165846975 -10.546576606690186 2.5968901951294363
116 41 8 -6.870636234956731 -10.875603985849537 2.3109301886178732
117 41 8 -6.357624186651361 -9.670047868242953 2.0983224506470832
118 41 8 -5.297668877931967 -10.136917349985653 1.1630588040659624
119 41 8 -4.236522704105247 -8.893012510587653 1.8784002695148108
120 41 8 -6.2857376949997725 -8.372700178723127 2.090614906949933
121 41 8 -5.348758280414939 -7.764532091379761 3.8519101729590504
122 41 8 -5.085263404675311 -7.890950486869982 2.79388967944056
123 41 8 -4.264860309729019 -8.269311624244843 4.078100663670676
124 41 8 -3.136244545517965 -9.071471707837905 3.8338851561476726
125 41 8 -3.249423966751067 -7.962937413834163 3.2483900789225997
126 41 8 -2.761403747872259 -9.057463445992324 2.937311097459208
127 41 8 -3.670517064828436 -9.712883058764149 2.8538556102934964
128 41 8 -3.5253546797983586 -10.92203584476924 2.977447568590252
129 41 8 -5.222241157113728 -12.577374588469327 3.3656508540414967
130 41 8 -5.913544377421346 -13.261605979042603 2.30302468712994
131 41 8 -7.558330208454691 -13.241430523914769 1.2699604285009174
132 41 8 -7.9089540686579625 -12.10560141813545 2.8954293680076253
133 41 8 -8.699930511166814 -12.533771930159274 2.059654484331016
134 41 8 -9.167597281449865 -12.091983169681193 1.2722070697584054
1025 59 5 -7.486542845400914 -16.64197062345776 -5.779433019104081
136 38 7 -6.299539401258001 -15.198251236056956 -0.8162517078923778
137 38 7 -5.822207934146697 -16.640438711546782 -0.4780072243797266
138 38 7 -5.14122008259272 -15.65687655205578 0.2019250897957811
139 38 7 -4.580504328268743 -16.765975170377178 -0.04889622652489485
140 38 7 -2.8502916342300044 -16.896756040588937 0.5627925870683341
141 38 7 -2.3123531883143023 -15.166904187130338 -0.0007237240195314202
142 38 7 -1.942183037852063 -15.198082750789334 1.3748246312470704
143 38 7 -2.5563657621150955 -14.469316760222343 3.022752145600054
144 38 7 -2.6265171216570997 -14.196858232608001 1.272410261911566
145 38 7 -3.900636732792346 -14.092761790485651 1.708860198290946
146 38 7 -5.3814273413152085 -12.897135502951704 1.5326095023611108
147 38 7 -6.1316321659707125 -12.16822482162998 1.0872070705726748
148 4 8 -1.622778064597991 12.370604403587937 17.71497828191047
149 4 8 -0.035483944504164075 11.274165245831508 17.959039256534748
150 4 8 -0.26423568766305094 11.21511891394056 19.2723684128919
151 4 8 -0.11619168784662685 9.392403485518797 20.3427142239513
152 4 8 0.9391142166657985 9.765311410969398 19.74040776094762
153 4 8 -0.48007068820843446 8.776623178855955 19.203374767464457
154 4 8 -1.5961630082069913 8.01083575685764 18.845015828664156
155 4 8 -2.1954823312363345 9.458796004740346 18.29546201874332
156 4 8 -3.224842912811715 9.45676339344985 18.620079111595217
157 4 8 -3.786906043559613 7.479751315578214 18.109783353677813
158 4 8 -2.2136849271997447 7.900717121057399 17.9411971359837
159 4 8 -2.655998140565501 7.515696594753915 19.25481001185162
160 4 8 -3.0704465534113763 6.187941637956067 20.13337300013517
161 4 8 -1.3076634595657015 6.07958644577149 19.899472770296462
162 4 8 -1.6484938088624737 4.957082872793888 19.85965209800117
163 4 8 -3.759324684638983 5.119584715139296 19.570572007463156
164 4 8 -5.250237854572436 4.7815436975026 19.613953244604215
165 4 8 -3.89998304131919 5.534803819594431 21.114140666108764
1031 59 10 -3.9315698497250824 6.96920269445597 20.947728782439285
167 4 8 -3.535458534672482 7.695990033591324 22.338159433623886
1043 59 10 -4.938387639558825 7.820319716326973 23.174512934083896
169 4 8 -5.23069874835372 6.934623271479336 24.123633562511927
170 4 8 -4.468178519200973 5.22699627797829 23.549656298593458
171 4 8 -5.452377448967331 3.8937134192106804 22.994172757877745
172 4 8 -5.620870565278468 3.062647470271842 24.17461958697706
173 4 8 -4.135422427786336 2.5211991142172026 25.1414535498736
174 4 8 -4.461928973451135 1.569709780034204 25.288215771471894
175 4 8 -3.3319906440114058 0.6431344511686854 25.543487970305076
176 4 8 -3.032339284149153 -0.5931645652757013 25.088833855429268
177 4 8 -4.27024280646319 -0.27079470940073647 25.4080551608744
178 4 8 -4.931122985018304 -1.0933075406676498 25.963456568732912
179 4 8 -3.964137468055944 -0.7287915285527929 27.249485460570867
180 4 8 -2.4356718376654114 -0.5674065465248697 27.654328030789344
181 4 8 -1.464329994389189 -1.5564825670888762 28.230299664046502
182 4 8 -2.1636111932106266 -2.5058883461918455 29.219648740447422
183 4 8 -1.0010307906513827 -1.638990340637052 29.632512613511718
184 4 7 0.7975367744793277 -1.4761756402372492 29.086476854168335
1028 59 9 1.015040741969571 -0.36142919722470235 28.039802057359296
1023 59 9 2.0104198699211233 0.7323485010228441 26.998988881829717
187 4 7 1.0472095648736703 -1.2404567213631037 26.242404250694577
188 4 7 1.112016840629412 -1.2642945217603505 24.970813757212312
189 4 7 -0.18761941411261257 -0.9634667739804645 23.746701874899784
190 4 7 -1.7235068515979455 -2.013983438709582 24.95527870898532
191 4 7 -3.014708951995767 -2.916211802520405 24.917245884606164
192 4 7 -2.8684977461908563 -4.660518575690579 24.562180579580428
193 4 7 -3.4630467820608604 -5.948066716715131 24.26912580529027
194 4 7 -3.369838984869996 -6.675714092169366 23.421836468219738
195 4 7 -2.5634041707025172 -8.038236815284325 22.89502820522166
196 4 7 -1.377292001137074 -7.203826235127845 22.813390046901226
197 5 8 3.3673268182447074 -3.4033907359841176 12.446233981260233
198 5 8 2.2009015941318975 -2.696317630654689 11.282032388994647
199 5 8 1.7878992286038622 -3.8303464438972266 11.757837767940748
200 5 8 1.918638892773771 -4.427947843782992 13.391211988594689
201 5 8 2.6857619325053372 -2.9880697751449707 14.164241843143895
202 5 8 1.5583751012604847 -3.659031075751522 14.528549971680519
203 5 8 0.549285645625802 -3.338768445783353 15.852770295833446
204 5 8 1.955755502241473 -2.8998154519875747 16.60564125613118
205 5 8 2.1842359129292683 -3.511682469800513 17.749028846733424
206 5 8 3.5775950909988703 -3.1136840197463433 18.102034759028864
207 5 8 4.8820150651524745 -3.162855250375002 17.773821344592776
1056 59 10 4.5490624982624634 -4.610798668080687 17.17364567557674
209 5 8 4.201788797511564 -4.251438898243581 16.29971825742459
210 5 8 4.549723112775269 -3.576828481097506 14.939069421936239
211 5 8 4.731833184751757 -2.4326694751838214 14.635655098215468
212 5 8 5.270306762835125 -3.2179437996165707 13.094655714563757
213 5 8 6.227156279845736 -1.8907002676170215 13.399551370218289
214 5 8 7.525960468695627 -2.4712665376226783 13.231507924228202
215 5 8 7.595652515098852 -1.107278311810746 12.882005955903475
1019 59 4 5.511787147621867 1.0610817600627445 11.21723141319558
217 28 8 6.384477922928565 1.443747130638972 9.835962393512736
218 28 8 6.630938502726266 0.4881529926145268 9.157019741130641
219 28 8 7.593075703525377 -0.2210737513916052 9.52480940445317
220 28 8 9.16179573313368 -1.1797112238625793 9.309662325672488
221 28 8 9.095477519573006 -0.7779718954790636 10.296595067211754
222 28 8 8.569862480262556 -0.04061866973103524 8.62203143831126
223 28 8 7.973897874610793 -1.2957188886814133 7.226791899469511
224 28 8 8.2984679644233 0.5045247635557502 6.957844732351006
225 28 8 9.163042749738842 0.8819407431681754 6.506795060513907
226 28 8 7.255263804745835 0.9524652672296601 6.172763797297909
227 28 8 7.050391612331435 0.5210758322739435 5.172482315473094
228 28 8 6.583486588255866 1.156060718906662 3.9732251219660797
229 28 8 7.042398694916685 1.7453952092912717 5.234761744397187
1054 59 10 8.162001174837746 1.143586096072775 3.9804336987313733
231 28 8 9.727546038842112 0.5617601718985483 4.1940258696939985
232 28 8 11.243874043593783 -0.7070183183617297 4.3723303996320295
233 28 7 10.591422656016277 -0.7709663699905479 5.768599762178925
234 28 7 9.207162874558817 -1.4151271985454121 4.9544735716369885
235 28 7 9.787388730150798 -3.238320985018132 3.854919601881452
236 28 7 9.389189257433552 -3.379795913368174 2.3681456726693715
237 28 7 8.667994232502412 -2.5725512389491434 1.416248661131435
238 28 7 8.880181825676635 -4.285419008868517 1.4747655348782345
239 28 7 7.217651563576128 -3.14533934222517 1.8925963815833726
240 28 7 6.412467120044133 -2.391593349310903 2.2266729478171965
241 28 7 6.739516261047835 -3.2028004344118837 2.849422484241307
242 28 7 7.337715832968793 -1.6960833212336488 2.3950439426304166
243 28 7 8.964117082459374 -1.6073204582371479 2.1799882531039416
244 28 7 8.055344231072691 -0.7728285050276833 3.303333279060416
245 28 7 9.342875042560774 -1.4481850212644263 3.4074931734524716
246 59 5 1.0103690746720941 3.943681206822581 5.7144742749248465
1052 59 5 -1.1243354467099196 1.973680380523705 6.182051830346217
248 29 8 -4.127320722712374 1.3839559865692248 3.5894461986458324
249 29 8 -4.265817982447514 1.7706685473354344 4.905864860137607
250 29 8 -3.393809672441937 2.9170118516734704 5.003762122531387
251 29 8 -1.727597372510553 3.7125152139100472 4.557991143414748
252 29 8 -1.2999644283899974 2.621278381746404 4.751544553206992
253 29 8 -0.9698068520304066 3.098788865914985 6.320075151285157
254 29 8 -2.231567789809998 2.86283204184509 5.995107694895198
1071 59 10 -3.818383874448447 3.4859254268225204 6.457311673318277
256 29 8 -3.8147206917836978 4.9490404987864185 6.793879633640728
257 29 8 -2.5184699802835766 5.093723385992109 6.550851595751128
258 29 8 -2.779334011545957 4.789714268839369 7.710096717325669
259 29 8 -4.026227276559138 4.915883384934781 8.432022988449676
260 29 8 -4.858125109191436 4.943729106355177 9.392662659824214
261 29 8 -3.512920899528466 4.957789438364197 9.885119556466073
262 29 8 -2.4664667505134035 4.231989339309458 9.638558059865876
1069 59 10 -4.143820446507402 3.2964274215932945 9.480549505201994
264 29 8 -3.9170836024243925 2.7118655090484434 10.673854585917585
265 29 8 -3.046402784377769 4.171109621252448 11.445626093714326
266 29 8 -2.7454119421920393 3.327649042650484 10.713686007088615
267 29 8 -2.497755079143024 2.5416977844704496 11.658000563004665
268 29 8 -1.2535235898159554 0.8153029929800696 12.22179293432827
1034 59 4 -8.4516612962864 -2.039556160860035 10.000493673612658
270 43 8 -3.258732374556228 -0.8030231208014416 11.936273418223557
271 43 8 -3.641927219864276 -1.4039696410452687 12.681061986767903
272 43 8 -3.5078184017418454 -3.0053284386337467 14.1103499719879
273 43 8 -4.45947653770555 -2.182802651955726 13.909933380955216
274 43 8 -4.464771329628505 -3.1216809227255844 13.007719476348779
275 43 8 -3.989700454182283 -4.137109854821277 11.963710322135396
276 43 8 -3.2231745663896185 -5.840812371903461 11.38501347845233
1047 59 5 -4.181322168738712 -2.6662860056178097 9.549885061969276
1012 59 4 -1.0862751997952682 -2.662757103215336 3.596424251169248
1026 59 4 -6.4616232139555185 -2.345994773967112 10.82583609401108
280 47 8 -7.166725486703197 -1.0842231706900987 8.450015211131472
281 47 8 -6.89424281816342 -1.992625832518075 7.434559585008725
1067 59 9 -5.956208104249442 -2.5734154475819704 7.950208146956933
283 47 7 -5.4573996042978425 -3.920454001744986 7.094099974202933
284 47 7 -4.2364919760968744 -3.4345597245383552 5.558169959100194
285 47 7 -5.5851256673892555 -3.118560107390908 5.593525422583211
286 47 7 -6.530063097804412 -3.480370930129396 7.120380001724369
287 47 7 -7.749121820588955 -2.76420302265069 7.1726841934264725
288 47 7 -8.312564265189339 -4.665151741725035 6.520539592773929
289 47 7 -8.762571205083436 -4.448298359656635 4.9236625424896125
290 47 7 -8.667556132168672 -5.804083144237013 6.370900744834135
291 47 7 -9.877243596303432 -6.317954744696881 5.134598239334325
292 47 7 -10.26225297432488 -4.257795822653426 4.959036330748639
293 47 7 -10.366212395522162 -2.852209368005615 4.318448543418227
294 47 7 -9.603925154070039 -1.6653157309388913 4.630744169056727
295 6 8 3.6920845719744455 14.563842091515307 7.83646665912788
296 6 8 3.416581051547265 13.99604902289219 6.816868846639268
297 6 8 1.799313084932392 13.124716135741354 7.356914075331402
298 6 8 1.061681870885201 13.407054665437558 8.225852996202246
299 6 8 0.024843688099703894 14.324162576972043 8.869967980526914
300 6 8 1.2534255625423645 14.883633372210598 7.760336608957084
301 6 8 1.598135156473413 14.743816222847856 9.803067139002485
302 6 8 0.5893324561828943 13.364512067039822 10.36644945083786
303 6 8 0.052558758075945886 12.474194682546045 9.594364951029645
304 6 8 1.3808514454240972 12.475711863490856 11.080303233079828
305 6 8 1.3683432340520345 11.962632290091104 10.08442110707083
306 6 8 0.9399442184730243 10.03769637754583 9.782553690919437
307 6 8 1.6762121268792565 10.810717868228757 9.897940765757511
308 6 8 2.7578224757550216 11.60409159256434 10.527583326782642
309 6 8 3.5964021383261993 10.702327096417779 10.570129851327481
310 6 8 3.4657720915366195 11.770168812549908 9.430876327802942
311 6 8 3.1652312717605224 12.469026876724197 11.191421088507537
1011 59 5 5.886368348041229 8.409996628105867 7.5483324280539215
313 42 8 3.481301215492038 8.36337140743372 9.254881977010013
314 42 8 1.554671301096101 7.901769345328925 9.00047131333625
315 42 8 2.0276196076500024 5.907371678218865 10.03721734372996
316 42 8 2.986677630120677 4.809873587465036 9.090599192001802
317 42 8 2.9128929896917293 3.7907053021627783 10.184548255999694
318 42 8 3.56842506365162 2.713533867186124 8.483355429356624
319 42 8 3.8250267583944977 1.3699772153360936 7.6652429236063435
320 42 8 3.428145764429257 1.567418711595111 5.902165832730125
321 42 8 2.575035446031418 0.7548431446609112 4.618340341881061
322 42 8 1.9122361093805889 1.4652626145005685 5.268162678749665
323 42 8 1.759637040152737 2.6162740225087524 6.201053000928055
324 42 8 1.0338964112919142 2.6919089668267184 6.925515465760821
325 42 8 -0.0126081166221878 3.3628820529103556 6.9971355669184385
326 42 8 -1.3063745092836716 4.487457834589197 7.43424992447082
1064 59 8 -0.5969820249959078 4.501037331465749 6.720979134232257
328 2 8 -2.64446000490817 2.8125330579883174 7.62038044273314
329 2 8 -1.0503122287498077 2.7139144917407907 8.206204575073556
330 2 8 -1.4709264993578453 3.7563980374883346 8.754671347636393
331 2 7 -0.24373020748978105 3.5391650249888364 8.898317666866516
332 2 7 0.5823841768319237 2.9943231757941073 10.17055797922575
333 2 7 -0.5239377575882489 2.2458955923654687 10.777155982357513
334 2 7 0.047892962610120715 2.0639675206734323 12.239137929027896
335 2 7 -0.40311135828765954 3.192631160898514 11.72629227712047
336 2 7 1.1231643909594509 3.141965827703195 12.485860203682146
337 2 7 1.5917424857831974 4.361655923591856 13.145187364733518
338 2 7 0.46192806567554157 4.1503711484801595 13.554898416321853
339 2 7 1.3259478556715922 5.546569320469127 14.207171607813562
340 2 7 -0.07840658778970332 5.460597719821472 15.131393784123139
341 2 7 1.2394323712159265 5.09429728700371 16.55030615660139
342 2 7 0.22995824040952667 5.672108657140097 18.01540704515678
343 2 7 0.03391895132212093 6.180703166131193 19.879860885036077
344 7 8 7.487071027149293 17.624273310336847 -7.857576811634951
345 7 8 8.199824655455002 18.31609600470001 -8.918163148190938
346 7 8 6.957858992165487 17.059568177078013 -8.963313821193879
347 7 8 7.748949301352356 16.335203131704112 -8.745747604531195
348 7 8 9.110169187884603 16.00072404714136 -7.052293319888725
349 7 8 7.987438470577446 15.351523499610634 -7.150266187623957
350 7 8 8.061372026372648 14.65946736708555 -8.346666717003318
351 7 8 8.427231392621396 15.129186844576084 -9.520871822668209
352 7 8 7.112635030712682 16.06647832203993 -10.200938529252726
353 7 8 8.15291957896469 14.61019445199834 -10.740985371267682
354 7 8 7.814705663787034 15.004110390842294 -12.275339715439372
355 7 8 8.09933176964547 13.33915438868147 -12.479754141598855
356 7 8 8.516374959214389 11.17490509220168 -12.53576673479374
357 7 8 8.612473467868915 9.903847921568126 -12.354427875845236
358 7 8 8.04826506935943 9.790859399746093 -10.996409022746981
359 7 8 8.837582638935825 10.351298245935432 -11.184001655987489
1057 59 10 8.758753250244123 8.949694794002596 -11.363650702658138
1048 59 10 10.45945580259145 8.202853179663958 -11.471703971813834
1066 59 10 11.822135591292703 7.82618651157817 -11.677087242805346
1051 59 10 11.568773532288388 6.601887544252731 -12.76608791105128
364 7 8 9.88605224988208 5.745148111921022 -11.861599455416181
1063 59 10 9.815330445632913 4.442326139845832 -10.551509768027932
366 7 8 9.038441282830881 3.8934470389002462 -11.819616024513758
367 7 8 9.978032730368431 3.498804848319498 -12.411546943532613
368 7 8 9.439730743755867 2.3433994284621473 -13.53185142298381
369 7 8 9.026967993126723 3.488233756852962 -13.281910389831596
370 7 8 8.029395121991058 4.498546493811718 -13.433355170648145
1038 59 5 9.149393857608239 7.95294795254791 -13.354168436529001
1035 59 5 14.865192141542153 5.31312986370734 -16.957394990542248
373 39 8 13.311528939078105 5.3418814830557695 -17.259442789430416
374 39 8 12.617512722935086 4.455073226136244 -17.015472560593526
375 39 8 12.305419789818252 4.011832518106936 -18.179105911733988
376 39 8 11.57363366027979 4.229833379396961 -19.04469075084643
377 39 8 11.099520599447523 3.3240447124473995 -17.855057442877445
378 39 8 11.84008894139109 2.3558432023116773 -17.439621923670924
379 39 8 12.791406752941256 1.5398260813239448 -17.850934803755504
380 39 7 11.510025264426087 1.6065502958516131 -15.987059882097677
381 39 7 11.507660212675347 0.9531036394423209 -17.762475171496856
382 39 7 11.094482149506252 -0.4254860480139354 -18.370470290009045
383 39 7 12.796717469006202 -0.223850853653159 -19.029779185517953
384 39 7 13.410961112500022 -1.2640590643802598 -20.731456370879453
385 39 7 12.974339825249064 -0.3009503706413443 -20.453143638175867
386 39 7 15.109237686829092 -0.8643389552615908 -20.726010647544882
387 39 7 15.77660610668163 -1.7919625991391386 -22.41749977605697
388 39 7 16.246883152836176 -2.7747416704315353 -22.24422422243475
389 39 7 16.66754477621883 -1.2666774771592313 -23.305205974631715
390 39 7 16.842250424154468 -0.11515029585258638 -22.63593060728685
391 39 7 17.208667113819136 0.9285521609507043 -22.529181769216994
392 39 7 18.145616889327542 0.37887433635695356 -21.274004971757407
393 8 8 -4.86944378370358 -2.718442693556171 -16.246691096196063
394 8 8 -5.822704362999106 -1.9428537643586765 -16.78301742861271
395 8 8 -6.647433273555864 -3.082371948775556 -15.102010726953992
396 8 8 -5.819033381553607 -3.5197196262393846 -13.845998271727796
397 8 8 -7.0111129649373725 -4.2899282816306625 -12.434624743274549
398 8 8 -6.9201178374157175 -3.309655207962331 -12.975901397365435
399 8 8 -7.151836629711777 -2.555478218716062 -12.321544618632268
400 8 8 -7.661408552253601 -1.2612003688114608 -11.843926493263828
401 8 8 -5.890598949946615 -1.1801005335478507 -12.65153829077065
402 8 8 -6.4321061776780715 -1.6630629901635208 -11.653563706740545
403 8 8 -4.619934942018252 0.08375070406801484 -11.65218508186283
404 8 8 -4.1909758391995275 1.2062551495081757 -12.055529990460736
405 8 8 -5.131356389251586 0.49755263111143444 -10.764041934765968
406 8 8 -6.245481403322572 0.024895359999637125 -9.89541804431708
407 8 8 -7.291759769843906 -0.21689102127735585 -9.851139734185693
408 8 8 -8.114802586942275 -1.5674926550076294 -9.590542427375622
1010 59 4 -1.9329674951333835 -0.5110324534120848 -10.387924176360002
1022 59 4 -7.164707787669155 0.13247109655577644 -7.542487578065151
1016 59 4 -6.097492174536425 4.266293536477516 -5.684792879406504
1029 59 4 -3.2819077793860196 -3.1229719290551907 -5.798879678785588
413 49 8 -5.061446514929597 -2.186281233857876 -7.592429577946139
414 49 8 -5.106562153564853 -1.1939327788689538 -8.70183551399196
415 49 8 -5.384802099454721 -0.24302609900587466 -7.298910789605337
416 49 8 -6.329842151496613 -1.6911716501256822 -7.16587933469201
1021 59 5 -8.587211851726229 3.768098936059373 -8.115289568325707
418 30 8 -7.734595701866961 -2.1000867588423424 -5.538810497334216
419 30 8 -6.943031666723151 -2.7915660806880305 -4.565487121246358
420 30 8 -8.93995770976967 -1.3125910861654684 -4.318076737991157
421 30 8 -9.632724265629223 -1.6181817058453907 -5.0136083255353485
422 30 8 -10.418798576206243 -2.1557696437118183 -5.662942810605302
423 30 8 -10.231458377574482 -2.177243925890412 -7.292964393740437
424 30 8 -10.950886435483772 -1.378329085413283 -7.358727797392882
425 30 8 -11.186966001305269 -2.82232322943878 -6.711142620968579
426 30 8 -10.79195236976044 -3.386371219792085 -7.607846565782288
427 30 8 -11.65189068754421 -4.336346274479508 -7.242434018644639
428 30 8 -11.54430818852185 -5.967871824138505 -7.806972760436011
429 30 7 -12.340195405162204 -5.853963593067454 -8.967315203591484
430 30 7 -13.84764913084697 -5.705810061748168 -8.943725831975684
431 30 7 -13.09725887562028 -5.531538500466079 -7.396590626763478
432 30 7 -13.638480939722719 -6.79257762441654 -7.136379596979923
433 30 7 -13.123285428564971 -6.76819743133496 -6.0840671270533635
434 30 7 -12.299517796608194 -8.05705771507727 -7.340697530885578
435 30 7 -13.439642352357874 -7.97134617497779 -7.803895079986704
436 30 7 -14.957858981208972 -7.50316093068072 -8.698368417714295
437 30 7 -16.435510361878997 -7.902842307883591 -8.127343485255695
438 30 7 -15.797888838783246 -8.247989955096616 -6.7075652662683565
439 30 7 -16.360514541422166 -7.883504395391567 -5.113504646737207
440 30 7 -15.099098444607801 -8.14346835871353 -5.90444707856286
441 30 7 -14.137086748779948 -6.204494381669049 -5.213977095077264
442 9 8 -0.48225703397586134 15.835610266783549 0.23304033918242034
443 9 8 -1.7359667599441233 16.623366543017188 0.9878898031609622
444 9 8 -2.5780514403309804 16.077046199251857 1.587317020421887
445 9 8 -3.0958029534313622 15.697476259614472 0.4390152939087936
446 9 8 -2.7807567488386074 14.516956474420562 0.024570850318469624
447 9 8 -4.184253590825149 14.806785475156442 -0.8299909459318389
448 9 8 -3.5720928944681374 14.172910199072804 -1.595973735758083
449 9 8 -3.486928378845958 13.908423604815294 -3.5639676846043056
450 9 8 -2.02663207983029 14.175876043944529 -3.5712512486352783
451 9 8 -2.6050819480927356 13.019781832729604 -2.6770508567703537
452 9 8 -1.9939032494612243 11.831634904143726 -2.202835790521925
453 9 8 -0.8578280056740317 10.726544070261667 -1.9767521517901192
454 9 8 -2.06077153241619 10.80572954873567 -1.3441657166833758