# Generated from readdy-to-lammps

1005 atoms
593 bonds

10 atom types
1 bond types

-30.0 30.0 xlo xhi
-30.0 30.0 ylo yhi
-30.0 30.0 zlo zhi

Masses

1 1.0
2 1.0
3 1.0
4 1.0
5 1.0
6 1.0
7 1.0
8 1.0
9 1.0
10 1.0

Atoms

1 1 8 -14.710251392630164 -9.65911556511993 -8.424425992594603
2 1 8 -14.442925195030698 -8.059846655332445 -9.213084468297318
3 1 8 -13.263808280745488 -7.933213385866654 -10.461907583134739
4 1 8 -12.979303794257504 -9.481639001282488 -11.295619782432697
5 1 8 -11.989777211457417 -9.021185798845211 -12.427764083901787
6 1 8 -12.212016514228967 -8.111576815297077 -11.745289413612676
7 1 8 -11.589981622781204 -7.3141004382677535 -11.854979351596187
8 1 8 -10.702021378855521 -6.22164084089272 -12.848289383805145
9 1 8 -10.47084915036825 -5.199803694678342 -13.012099586457964
10 1 8 -10.318232959344972 -3.7724895121202886 -12.570348315311161
11 1 8 -10.029539750523567 -4.01982796546172 -13.68431933358106
12 1 8 -9.200111713168564 -5.290941213053208 -13.797660600522152
13 1 8 -8.595672601321082 -5.308151643262292 -12.88181573158696
14 1 8 -8.718489019525997 -6.59210688805588 -11.647555092721126
15 1 8 -7.05647441647592 -7.514249760086321 -10.93726201914037
16 1 8 -6.577699445491468 -7.229922789814564 -9.955548165755218
17 1 8 -7.575582782665348 -6.389590413228027 -9.72152970826204
18 1 8 -8.464059888663392 -5.962557739318923 -10.039930843132026
19 1 8 -10.136215136773016 -6.113039031963686 -10.00468295521119
20 1 8 -8.835685465050279 -4.834119582543569 -9.897629864208925
21 1 8 -8.443623838218976 -6.325817564470207 -9.126866199509951
22 1 8 -7.715572874212665 -7.6422100521868375 -7.597029150123613
23 1 8 -7.460432118639284 -8.692381987487938 -7.313242520220392
24 1 8 -6.780889445534047 -10.398150858182174 -8.314007620002945
25 1 8 -6.171803758624646 -10.15094738520405 -9.260540893444363
26 1 8 -6.128191132571822 -9.425946699678322 -7.973772627705286
27 1 8 -6.384526821373472 -8.676052324254139 -7.402492988328779
28 1 8 -6.68200244666407 -7.640517368106716 -8.267431038535381
29 1 8 -7.165801248281809 -8.274352910924781 -9.38511046552087
30 1 8 -5.790846291717761 -9.311557217600676 -10.44796395273712
31 1 8 -5.820991828728028 -8.359905493765302 -10.032960548091681
32 1 8 -5.105291689391784 -8.387905763357624 -8.764905556165882
33 1 8 -4.204465778952804 -8.932314805902642 -10.146294082140976
34 1 8 -3.5378213266179603 -7.741947268993044 -10.338082097821195
35 1 8 -1.693827641677735 -8.258015944154943 -9.833250165595533
36 1 8 -1.0567322418621141 -9.2247260962639 -9.447438896419898
37 1 7 -0.6705957077032896 -9.530458908208267 -10.74420393525196
38 1 7 -1.935459361013532 -9.626789646688152 -11.196045866568646
39 1 7 -3.359766768134874 -8.566453069874003 -11.305683900709962
40 1 7 -3.987810818732437 -8.144907514907196 -12.321418235676532
41 1 7 -4.226834464505476 -9.097125277238076 -11.843551724729108
42 1 7 -5.630672458245758 -8.059232231206165 -11.844923310271781
43 1 7 -6.034700359210119 -6.435732560536366 -12.780124996741053
44 1 7 -4.65219555301347 -6.236727200431788 -13.057535587327713
45 1 7 -3.207663938946283 -5.092077611962765 -12.731561047530102
46 1 7 -2.4103058593475604 -3.764799050773725 -12.276156190090644
47 1 7 -2.0674485410269523 -4.895415614478535 -13.544864363365102
48 1 7 -1.0886362323481569 -3.460917884281744 -13.338003497889648
49 1 7 -1.21003844100714 -2.9344381327356133 -12.000566917831588
1050 77 4 -2.6293506508156463 -1.2634573621832874 2.098443585127986
51 77 5 1.5779183272169297 -3.4024441256039517 -8.326326827700811
1046 77 5 1.9483375981146203 -5.114972446654813 0.017311468539062742
53 77 5 -3.197310860275608 -5.2891091575662905 -0.15416354640007648
1042 77 5 5.205714744205891 -2.9000231599793698 -2.5354557843879193
55 52 8 4.915821659379692 -5.091865955853168 -0.42387647012121565
56 52 8 3.4699622883996293 -4.35189700312561 0.643266317810967
57 52 8 2.985969537904885 -4.988993694083692 1.3114938489463845
58 52 8 1.952032825483196 -6.167005794745131 0.607623233450406
59 52 8 2.9325611991380365 -6.384681703031802 1.182878625725124
60 52 8 1.878904308937956 -5.757001204628856 2.0306711014129566
61 52 8 0.4209887311684611 -6.942173988566563 1.4421890324946
62 52 8 0.40985313928842076 -5.3153452323049475 2.1777384310762007
1007 77 4 -1.511219270674221 -9.874776781775797 7.23917070316097
64 26 8 -0.40439058919316323 -6.274081970640738 0.08299823204915734
65 26 8 0.0733990491616494 -4.91407793040354 0.6351857854133328
66 26 8 -0.6938273887321437 -6.06448531852107 1.703319877984068
67 26 8 -1.1869876729931508 -4.919202849543389 2.2010044363526857
68 26 8 -0.29943535464477994 -4.9091314889803535 3.389818451931404
69 26 8 0.5681655944525783 -5.147954506517798 4.7144095142065705
70 26 8 -0.20222103317207107 -4.005432238083253 5.258046213511079
1036 77 4 -4.6429453266518035 -4.8835216565101875 5.655328743530895
72 77 5 -1.3603759371968602 -0.5198774181675542 1.175991299365307
1009 77 4 -0.6347741107306158 -3.770593104929014 9.61974121657199
1104 77 10 -1.85985173956802 0.10908164860854355 0.47575932986393876
75 54 8 -3.323402844724858 0.5310567102485649 1.0251578441967082
76 54 8 -2.0812291405573338 0.5165837283205904 1.3866639068024884
77 54 8 -2.7657490445157604 -0.993192385545285 0.4479430441246671
1074 77 4 -5.292522649566106 1.0096304029377743 1.6331171841056789
1037 77 4 -3.971487442290398 4.063469207112692 8.312007862595182
1017 77 5 -5.864424113442865 2.59351444363493 5.4346052544254855
81 57 8 -4.496733182638553 4.496736147223165 3.04025766987118
82 57 8 -3.3710172834871655 3.5372367975982404 3.7460798082795432
83 57 8 -2.1954941580026803 3.3963596844582367 2.563697860538453
84 57 8 -1.1521331296157526 3.054454155079802 2.5813069477357002
85 57 8 -0.037887926728837604 3.814122753519204 3.2881251775650657
1079 77 5 3.871551836018921 2.3026832564002824 -0.11550949229708006
87 63 7 3.311980533883319 1.7319671176203493 2.5131855596944455
88 63 7 3.0427206396363053 0.4121908144272668 2.2854725468811203
89 63 7 1.4502418505923147 -0.11492623485527166 2.7999659638892784
90 63 7 0.484240184969564 -0.016352881750507454 1.4309455796750425
91 63 7 1.5373700770085803 -1.269220666600294 1.0763044054416242
92 63 7 1.8940863855910073 -2.095117591988734 1.7758448381348366
1044 77 4 -0.773612600971408 -1.7613648384311833 -1.939102704150005
94 56 7 0.03814057752685119 1.7305186196352467 -1.7030516809817957
95 56 7 -0.3415659108588578 0.859942305092112 -0.9952590586032717
96 56 7 -1.5886798894340064 -0.26405278109401703 -1.0823431804927048
97 56 7 -2.9925037941800263 -0.9896269723231115 -1.7712454821996961
98 56 7 -2.431105508264135 -2.014768776036206 -1.162889777453399
99 3 8 1.4014455372744272 -8.259135348748304 0.5437627126494532
100 3 8 0.3618990390665576 -8.193430219374141 0.12023619038852491
101 3 8 -0.16261586489910246 -9.406263167267104 1.0819148661304645
102 3 8 -1.0939215839712677 -9.373680331993414 2.2976073176478504
103 3 8 -1.580944617197052 -8.856732997074314 1.0184679878125158
104 3 8 -2.4561906578779404 -7.398218851170788 0.10583113361592601
105 3 8 -2.6314516339096543 -7.703204995880392 -1.141946180976025
106 3 8 -3.351893436172421 -8.59509142658699 -0.41619162358557976
1107 77 10 -5.0024039887467024 -9.656987330155602 -0.2049837313356303
108 3 8 -5.100429096180653 -8.902257223359646 -1.5120109244589586
1110 77 10 -5.445323763865512 -9.84914097016396 -2.541463010927096
110 3 8 -6.430970932517479 -8.243321902233143 -2.4572852772200173
111 3 8 -7.07547773006011 -7.679467565464237 -1.917479570337357
112 3 8 -5.846482876464771 -8.21542107445325 -0.5054467153952438
1111 77 10 -7.208354838434244 -9.461371505397556 -1.4743688251855553
1024 77 5 -4.18769954954623 -11.078960312002597 -3.1036596094221856
115 42 8 -7.053492909518254 -9.175920979319338 3.579631446196456
116 42 8 -5.881931768484386 -8.843565222396892 3.661500535214241
117 42 8 -5.51647433866253 -8.404791330061306 2.4181300341974286
118 42 8 -4.445361362084562 -8.071313609794963 1.0570168930473383
119 42 8 -3.871275536111855 -8.784514947480591 0.5234150355166733
120 42 8 -3.492405031546006 -8.160169291310764 1.9881060998586986
121 42 8 -2.572553848777877 -7.18250912219847 2.6973477635899408
122 42 8 -2.8761026553300844 -8.93162950836534 2.808691637391318
123 42 8 -2.287683982011398 -8.993669327424461 3.996574125987653
124 42 8 -1.0115893457334015 -9.549217536124683 4.34432957108782
125 42 8 -2.3440691924150108 -10.382440924652402 2.6451061676290357
126 42 8 -3.8645301413928776 -9.628460485829937 3.1126073764825364
127 42 8 -4.623466168727974 -10.631949531526637 2.249517878157922
128 42 8 -5.674347739570815 -11.676814118960516 3.097874226259198
129 42 8 -6.487934588378288 -11.442901475704204 1.9672339182756284
130 42 8 -5.4003068577249795 -13.073441155693953 2.437174078511502
131 42 8 -5.727594973201142 -13.884647530816467 3.2502067949004783
132 42 8 -6.285785939749331 -13.962246005282685 2.252577921171997
1097 77 4 -6.068647262698077 -15.599391642147275 3.6946914308734367
1084 77 4 -8.8961181496764 -13.281991826716899 1.2233961561733153
1025 77 5 -5.977066120029607 -10.152528674647401 -4.4621509867642155
136 40 7 -6.732713424145481 -16.649227144617665 -0.23677028722814286
137 40 7 -6.201823976082941 -15.833313524157402 -1.3316032634498227
138 40 7 -4.742283864314985 -16.101211234847277 -0.7069739690096571
139 40 7 -3.9477317921303845 -16.41029769466612 -1.4173498530532123
140 40 7 -2.525387082191008 -15.998607772437099 -1.8954577630028353
141 40 7 -1.4368030464033095 -16.02932024870894 -0.2882299679212785
142 40 7 -1.047491044554305 -14.636968742191344 0.8676979331233007
143 40 7 -2.276575517826257 -14.508264667678901 2.584545037045587
144 40 7 -4.074951991080769 -14.23390673862196 2.6893143998620634
145 40 7 -3.3374731434657874 -15.057299321390563 1.698165171928598
146 40 7 -3.3875570165263955 -13.6510311656665 1.6033050332890935
147 40 7 -2.9596416179166134 -13.465195851021175 2.7703118666086013
148 4 8 -0.8695208273221963 10.313785662603383 18.460563015432506
149 4 8 -1.5928512554770762 11.335535981676909 19.203815855093612
150 4 8 -1.088178018435511 11.699454833929625 21.425134475172836
151 4 8 -1.1315338658986351 10.30222354592556 21.277625551607592
152 4 8 -2.327215519812617 10.844375793149378 21.08495465440437
153 4 8 -1.7979966141879369 9.601387839471618 20.813321360594035
154 4 8 -2.8681920324413617 10.16503758980588 19.81556797656364
155 4 8 -2.3544115842838123 9.233178914077557 19.237636025167323
156 4 8 -3.5783955640119043 9.020665265767065 17.994809184344188
157 4 8 -2.0980719202051636 9.557816007577829 17.671465446612178
158 4 8 -2.800063279463194 7.727064533603767 18.189869470157298
159 4 8 -3.8668444453624367 8.406497208476164 18.87446664479566
160 4 8 -3.9697010389969014 6.925506549133637 19.328099142709863
161 4 8 -3.69047929899845 5.755598986447152 20.2720509669517
162 4 8 -2.946916353494508 6.884077084577314 21.00422646239573
163 4 8 -3.333052939657985 5.282839276405573 21.417943040702863
164 4 8 -3.1559531147992805 3.493007448287003 20.691655914057854
165 4 8 -2.267713859342204 2.565357902250379 21.332371598724606
1031 77 4 -5.419334872290546 9.154932015941784 16.804138683058195
167 77 4 -2.2701812817073863 7.195271639458551 22.6739260798778
1043 77 5 -3.6522115440769047 3.799834967865419 24.818891989768247
169 64 8 -4.72452571011182 2.991099608422218 23.712460274473656
170 64 8 -5.603189342024724 3.818677340319687 23.597379498801995
171 64 8 -5.622535555620451 1.7263067636613167 23.666072595935066
172 64 8 -5.178071123344823 1.7740954812411556 21.993805375978113
173 64 8 -6.040114399005022 0.8935374120791101 22.662047688325043
174 64 8 -4.956684007356234 0.20255103596664797 23.061057330143402
175 64 8 -4.977082862401793 -0.414755292436618 24.753327217100402
176 64 8 -4.121910410929581 -1.4917692832026703 24.136389957485612
177 64 8 -3.7082862703213135 -1.8274781892442553 25.670934091030624
178 64 8 -2.386746930700556 -1.7656394559985393 26.81844748572024
179 64 8 -2.9191679747472037 -0.6818834530278164 26.896026599938633
180 64 8 -1.9245066682828464 0.41674356431047055 28.12908267682935
181 64 8 -1.788436338493054 -0.6855589758627455 28.617306208722606
1106 77 10 -1.5094875289116194 -2.2410241951127827 27.357251956768746
1108 77 10 -1.4325087380564099 -2.414789002537553 28.382515206826394
184 64 7 -1.252690736282885 -1.3113272641385345 29.204390900835985
1028 77 5 -0.6048363023352525 0.052378719182539564 29.460864826423585
1023 77 5 6.3390398053367765 1.0733896307575883 25.643813098715786
187 29 7 2.285231927428731 -0.7521879378443799 24.019057240003256
1091 77 9 0.6888263316755401 -2.6406615594178553 24.96288558550461
189 29 7 0.26949622254657324 -2.4205132531411384 23.1433764360489
190 29 7 -1.5315003816004937 -2.7035024172511615 22.42109486928558
191 29 7 -2.659324755703261 -2.675706559057022 23.602755498093245
192 29 7 -1.319133420623848 -3.8291770288643647 24.51986850487133
193 29 7 -2.6361965013907436 -4.0858672506051255 23.882147923372486
194 29 7 -4.662170338180112 -4.4415926355122775 23.001352084151787
195 29 7 -3.6640127483849674 -5.6134510436801035 21.841533646482134
196 29 7 -2.4078495088381002 -5.836499716949517 22.03745060290665
197 5 8 2.7077062487621912 -2.5720490331546166 12.132566066470645
198 5 8 3.1030764043729 -1.550057067950761 12.59240071401927
199 5 8 2.6926994580796286 -3.447283322331229 13.139141191258442
200 5 8 1.407925162119926 -3.732779614588114 13.48721439498143
201 5 8 1.132908051874212 -2.2710156342725143 13.844023403788231
202 5 8 0.26887273664359124 -2.766598261446522 15.165482689443769
203 5 8 0.6305735832325852 -3.4072271066378215 16.026906178037557
204 5 8 1.2328287135453668 -4.1150141661161985 16.500465458538034
205 5 8 1.4334293499119615 -2.383143018746168 17.330022040486185
206 5 8 3.5874289158400594 -2.974908144064405 18.440982019800156
207 5 8 3.7378820575814746 -3.1827959610162404 16.928855862479512
1056 77 5 3.578578112758417 -8.584904860210168 15.986006511250855
209 68 8 5.3801764651546815 -3.119483078963349 15.641170280492759
210 68 8 5.282752866184425 -3.97494422158514 15.054983751214376
211 68 8 5.837522832026855 -4.103269903529242 14.226148375548894
212 68 8 5.9114975143710335 -4.264429278520573 13.153420778495278
213 68 8 7.5820019279481805 -3.2449321137110156 12.962641490185502
214 68 8 6.725013841557604 -3.489590727091944 12.12392963413929
1080 77 10 6.5366913150606445 -2.992199255528308 10.638682345228315
1019 77 4 5.106967020677434 0.42420896684946235 13.137714029033864
217 28 8 6.254054099255798 1.0031126379445794 8.106097537735826
218 28 8 6.054584904705899 -0.6792718220346521 8.692585060469606
219 28 8 5.7963523579043015 -0.9385615579979345 10.106471911300186
220 28 8 6.011810082184933 -0.0698441972187797 10.556817082242294
221 28 8 6.709337150457548 -1.8281940041592692 10.064801036136902
222 28 8 7.531844419885973 -0.8205945108804347 10.549615097964356
223 28 8 8.51686184026977 -1.0806079546152014 9.357180307993408
224 28 8 9.398261271771938 -0.728013847656958 7.38229835391491
225 28 8 9.260816858051985 0.25843994097279976 6.517469263121517
226 28 8 8.159819128344175 1.0048041067402713 6.015869897744783
227 28 8 6.786543971919117 0.449068263053998 4.489125414502003
228 28 8 8.324262628740602 1.0873319229775353 4.089569309185231
229 28 8 8.120183548733335 0.3801357945636491 5.105702594696961
1054 77 10 9.136123128378912 -0.27768111309213106 5.382309072845942
1076 77 10 11.239819461542673 -0.08033624146717014 5.9233855800996835
232 28 8 12.240806825640634 -1.4946139226028332 7.499726633407311
233 28 7 11.475087470567974 -0.7027336201812939 6.858247816033291
234 28 7 10.2240512401216 -1.0756499703915663 6.402574635150218
235 28 7 9.890370361028639 -2.078631789506178 5.254133175837223
236 28 7 10.408927739619193 -1.3408322926055247 3.59986598798327
237 28 7 9.513462231539396 -3.2567571168987985 3.415121312534177
238 28 7 9.187095383276409 -4.5127911314110705 2.3661715185193994
239 28 7 7.745265968847716 -2.788119337114821 1.3659121909450378
240 28 7 6.8192427478146085 -4.129751164275077 1.3991158621130992
241 28 7 6.562062236123734 -3.334841026671711 2.932874376097001
242 28 7 7.29154756254728 -2.4682268120412076 2.6331603831836956
243 28 7 7.870176299498901 -1.2922368754875573 1.559896962060537
244 28 7 7.884407164078261 -0.6952267871668968 2.6588794014511623
1090 77 9 6.843434549798654 0.2501221523782136 2.5521481511226933
246 77 5 -1.3264950841675807 3.9616211934225616 2.996958487650612
1052 77 5 -2.231016773879023 4.936798696841063 4.315877284689102
248 30 8 -3.3464592764187673 3.0024485112449764 4.913776503240349
249 30 8 -4.72730861160853 3.246796947000974 3.7934037143637878
250 30 8 -3.830238299284832 2.627635776441652 4.114168592701881
251 30 8 -2.336742286048172 3.031504323480739 4.387724732650832
252 30 8 -1.5376422336823043 3.149462597919696 5.574714343682305
1109 77 4 -2.0051417415239103 3.7627594279426932 7.062453631808746
254 76 8 -0.930049837892492 3.71062619990999 8.074965487312264
1071 77 8 -3.437555591188892 0.999004454168139 8.568785784577889
256 65 8 -4.895370996667282 4.714825668398901 5.8600794554147635
257 65 8 -5.2577314463599505 5.164582670418213 7.023076321949353
258 65 8 -4.749427561206345 5.4021089417087085 8.605792816230776
259 65 8 -4.418098057027266 4.637560819547701 9.967065544654371
260 65 8 -3.85381639165623 5.165200606591323 11.086698736330343
261 65 8 -3.8974638595495317 3.695304734669087 10.751730156360681
262 65 8 -2.435166196630589 3.8748150238639925 10.944206390736401
1069 77 4 -4.472414460359564 1.673614223131473 8.451261332835772
264 58 8 -4.378693320645149 1.8989251235617592 11.465048793208322
265 58 8 -3.5653793708236736 1.5820324139970363 12.495587327541145
266 58 8 -3.0278294562444716 1.6673691249941651 10.940571105609994
267 58 8 -3.1924061764303877 0.48310977970263463 11.075466919191543
268 58 8 -1.8466940850008267 1.4900763178618395 10.358938037899474
1034 77 4 -7.027318971015112 -2.0880180304723495 12.1062537883437
270 45 8 -5.813263613000934 -1.07905233473588 14.663145149900036
271 45 8 -5.199150648864402 -1.9616487964710356 15.059813806051888
272 45 8 -4.430313365368173 -3.169869154690426 16.229448160006417
273 45 8 -5.929676661376717 -3.4267463828253524 15.065617048285949
274 45 8 -4.772818481167443 -4.422158513985359 13.997495295625182
275 45 8 -3.9594352945029954 -5.047556314627371 12.752753106738387
276 45 8 -2.8836275617013873 -4.341069292409992 11.669859642101795
1047 77 5 -5.02637976960885 -0.2178642196414519 11.61791391090697
1012 77 4 -5.147936641081066 -2.8061946952895225 6.543286096310856
1026 77 4 -9.639572014245209 -7.67639365266236 9.591378689853013
280 48 8 -7.344097192069254 -0.2875568628541867 6.700771301283756
281 48 8 -5.8598921095621455 0.8026445806722856 5.970973865997012
1075 77 4 -4.815083056899833 3.9212697856585375 9.395443232041009
1078 77 5 -4.356107184988084 -5.4062735476451715 8.498157653567173
284 61 7 -5.181929198544002 -3.930152884392853 7.028083019897647
285 61 7 -4.056839087476654 -2.7427346564053194 6.503708840744332
1100 77 5 -6.462035788053702 -5.4703115271392155 3.440836897781961
1099 77 5 -7.283221579194524 -1.1902822635762282 4.813273100848937
288 67 7 -6.923574000009478 -2.6143289365413436 4.396474391521802
289 67 7 -7.424573619026403 -3.4460383450059866 5.871939473367826
290 67 7 -9.22115168293166 -4.60509113563784 5.102847186708929
291 67 7 -9.87861869675635 -4.275205977851581 6.568824077878257
292 67 7 -10.874221178562143 -2.8002639773758533 5.960751600802632
293 67 7 -12.444402025061319 -2.9730537163235984 5.2979282340924225
294 67 7 -13.270481168025983 -3.3684782294905737 3.7393332816489773
295 7 8 1.104731667619493 13.089908493934173 4.900872869503032
296 7 8 -0.36190417436199496 13.521385443453095 5.611300570802481
297 7 8 0.7720417588464944 14.586551530391075 6.3578918743037685
298 7 8 -0.30643495644193564 15.512947871164187 7.216829579481259
299 7 8 0.732122830426789 15.3993629017237 7.755068692993326
300 7 8 0.22207132222495055 14.263436277002759 7.497331193912442
301 7 8 0.14007670623255167 12.935999873149784 8.064863024450345
302 7 8 -0.37033041024612107 12.073759475069034 9.451639145989702
303 7 8 0.1622380930488269 13.070957411510557 10.667170472650623
304 7 8 1.7322156885927273 12.307595190069513 9.529790284915634
305 7 8 0.9174914865567813 13.137320690043156 9.223513365201912
306 7 8 0.6598982847626188 12.08551113500144 9.227208897952842
307 7 8 1.6092859402120443 11.486699533825243 8.941682084551347
308 7 8 2.6927509069022775 12.19336441088976 9.292524378045202
309 7 8 3.5561249586554937 11.354184330019532 10.081119018653078
310 7 8 3.7637128066619234 11.991464618100219 9.325173588606937
311 7 8 2.444869224509313 10.768763396000619 9.254676042266494
1011 77 5 6.01788682040019 6.84325901291535 4.132332328067143
313 43 8 5.45979397021187 7.42048967065164 8.144756036554545
314 43 8 4.30280226812795 7.104658857266863 8.906877448053379
315 43 8 3.8245958348866527 6.252384888328239 9.706481280546072
316 43 8 4.713552042570365 5.65244304996493 9.142827940869852
317 43 8 3.4793989783188772 5.342363285122626 8.941722974154551
318 43 8 3.012521253648259 4.525446991739888 8.444784207601373
319 43 8 3.743849546624067 2.4750171721232146 8.291506685866636
320 43 8 4.392209111162318 2.021522481982351 7.3297371483358305
321 43 8 3.762789578529991 1.3121986482657346 6.617005790361232
322 43 8 1.881111633839618 1.3159390708062408 7.393164263032409
323 43 8 2.0851059465955926 2.7355375141442897 7.655729900283763
324 43 8 0.598377568034038 4.148577334180616 7.111356019382926
325 43 8 0.3736964099507777 4.931801815722025 8.509694389196266
326 43 8 1.2821143015985084 5.718645656638363 9.950037634260891
1064 77 5 -0.5761458020086224 4.403381181294955 5.902264721917208
1088 77 4 -1.6680630006709984 0.4728076519028019 5.5358528219989855
329 47 8 -1.4241299180077354 2.5224745175168017 7.950083825959485
330 47 8 -1.283359138989625 1.2870120925702564 7.353924165528141
331 47 7 0.19322128265209787 2.0144528732984313 7.612289517782689
332 47 7 0.09184647364230836 2.5705535716596044 9.316353798305984
333 47 7 0.10302854570503549 3.905046849921907 9.832587730041864
334 47 7 -0.34544433092605875 4.664025270771427 11.207258811641008
335 47 7 0.9606491436179637 4.068185420699056 12.606037125387187
336 47 7 -0.028228582236126103 3.678040318960341 13.260489811721602
337 47 7 0.3253706112915925 4.459766242224296 14.048629611839141
338 47 7 0.3736222023057766 5.919369921469975 15.011306011923102
339 47 7 1.2391330395638946 5.2308773773985475 16.220396730755613
340 47 7 0.8104231171419114 6.24991898916691 17.314088067745626
341 47 7 1.0181488776236298 5.341566788526755 18.2033954691935
342 47 7 1.0485137741058967 5.76541535713592 19.47822192234319
343 47 7 1.6963774329693297 7.080054907968343 18.14448439187112
344 8 8 7.393752948285599 18.081544283747274 -7.970096483504142
345 8 8 7.901249669489639 16.870313197565004 -9.25350707266481
346 8 8 7.879092539065206 16.8635912476072 -7.706867477804431
347 8 8 7.74193604279582 15.974334732164523 -7.112863622818068
348 8 8 6.6595753597644745 16.608578187206543 -6.949703276089379
349 8 8 6.372119289492244 15.898285277219001 -8.416315022689433
350 8 8 7.512097336962473 13.82537232294441 -8.682907954846351
351 8 8 6.749283730823862 14.518752835768328 -9.615549650894812
352 8 8 6.930782198444374 14.987485690246134 -10.557243894509435
353 8 8 6.7293744333420245 13.389526286403902 -11.032557818840544
354 8 8 7.492654438271834 14.117539958690939 -11.992699165198452
355 8 8 6.822310042161477 13.533942983328961 -12.668964050191171
356 8 8 8.04895354133291 13.07303223219879 -12.84833097472851
357 8 8 7.00104904706496 11.387892994916273 -13.357036380674025
358 8 8 8.095854171696537 10.550487866290903 -13.062844145299794
359 8 8 9.263126713784501 11.801737285440339 -13.49925709650988
1057 77 5 10.024863447327647 9.687653332073793 -13.382176453685714
1048 77 5 9.510566436133576 9.27119067213893 -11.562294749034248
1066 77 4 10.55714768187837 8.302337200570202 -10.256249672395427
1051 77 5 15.553870721594265 8.747062731293324 -11.432232457348654
1077 77 5 6.533629160836599 2.7221893079659703 -13.721491851570866
1063 77 4 8.813440588848005 1.8055531642999185 -11.129474112303658
366 33 8 8.051142110555467 2.100418512077426 -12.129885204592853
367 33 8 7.804900238023917 2.9230831880496875 -13.405650030691717
368 33 8 8.194472206837013 1.6080494971444188 -13.669542866044603
369 33 8 6.9704980646483765 1.049677283210686 -13.593788182543882
370 33 8 5.973958181235872 1.4934283418809031 -14.27928241769204
1038 77 5 13.01403570691051 9.377155091000924 -15.385469194456741
1035 77 5 14.599093297549155 7.387911101959048 -22.39510998134185
1083 77 4 13.572216042399493 5.308267806603393 -18.841375325327565
374 41 8 12.367054841773463 4.895338192380467 -17.32807987487668
375 41 8 11.59936321956901 6.099629861224469 -16.076816466657785
376 41 8 10.276111309030847 5.335268141948098 -17.299826816102897
377 41 8 11.460312360910589 4.522462480383552 -18.567220266689525
378 41 8 11.77330074788701 3.395572162483874 -18.221614203368755
379 41 8 13.347128456679783 2.2919423334318174 -18.07493989493454
380 41 7 11.537406857165957 1.1211198561098248 -19.187232025180993
381 41 7 13.008916248676027 1.3144839052199755 -19.777728025771033
382 41 7 11.627066643466746 1.495542028707605 -20.286785731203604
383 41 7 10.772146787224951 0.33272957742334974 -19.767980015800493
384 41 7 12.019453265220005 -0.2481286076883565 -19.71055372504978
385 41 7 12.438913905006947 -0.475913415547499 -21.099250170369043
386 41 7 12.804785433667506 0.592715618472438 -22.474092535848946
387 41 7 14.335172601825871 0.25858344612081596 -23.156452886686314
388 41 7 15.645403738071838 -0.029927944766270403 -22.482396038028394
389 41 7 15.869454556489591 0.09472650882362486 -23.510800912728413
390 41 7 17.206834986837954 1.358802042831449 -23.509681395567473
391 41 7 19.02533658396002 0.09026287736895394 -23.147977815738205
392 41 7 18.21601273212053 -0.9403065887343441 -23.341826242681126
393 9 8 -3.8274110260921836 -3.206548124009915 -16.282587685926682
394 9 8 -4.95110380295265 -2.3026858952156095 -15.84154972043324
395 9 8 -5.24398444708351 -2.314579782918079 -14.05864360240765
396 9 8 -6.657523029344978 -4.0335421008282095 -14.02197426866507
397 9 8 -7.723243962093913 -3.443212900805305 -13.463989718475139
398 9 8 -8.985285374333666 -2.7754756680146735 -13.164803481767427
399 9 8 -8.314189374042755 -4.099644648537992 -14.628397088113893
400 9 8 -8.262062526810887 -2.0733565385224426 -14.676944655512
401 9 8 -7.426782876647554 -2.367833180476671 -13.80342511705756
402 9 8 -6.200553794309799 -1.7368090148242987 -14.751791555554306
403 9 8 -6.576565116750994 -2.2497349558784334 -13.22161745793966
404 9 8 -5.482068623137958 -2.3883779326112835 -12.50796240731724
405 9 8 -4.880736354816726 -1.8446603717481171 -11.89894191673832
406 9 8 -6.739843357057365 -2.238021658708731 -11.135862745974855
407 9 8 -8.88918620997654 -1.6237054348763194 -11.275388466139608
408 9 8 -9.4530138526193 -1.7213162734298249 -9.728597414402044
1010 77 4 -3.289550964777338 0.6805611449713921 -10.349388810763053
1022 77 4 -7.617567195265409 2.5911681534453153 -6.167775292705048
1016 77 4 -7.379988889086192 3.7510414012415643 -6.0295879320483925
1029 77 4 -2.3581116941344917 -0.13667632162839605 -4.779938206316305
413 50 8 -6.380643937960509 -0.8688128995824139 -9.393946996901938
414 50 8 -6.263513663324281 -1.2979138967394428 -7.8171847448283005
415 50 8 -4.473015626354789 -2.157531443342219 -8.164526692818434
416 50 8 -4.543945229480062 -0.4049156731919393 -8.76432265394966
1021 77 5 -9.007848735883261 3.081782016730168 -7.564675943611293
418 31 8 -8.855678835710686 -2.033417271532226 -7.210646859260436
419 31 8 -7.938026458789232 -1.571456064782067 -6.661988581441257
420 31 8 -8.907719633395237 -1.3249435408169161 -5.446929807689529
421 31 8 -9.51743648687927 -2.054443619054641 -6.223009857556241
422 31 8 -9.88260106196295 -2.8259165486129034 -7.590587551986713
423 31 8 -10.883620860443656 -2.0390874008325186 -6.4141783253801306
424 31 8 -11.564988526299521 -3.0276787960572054 -4.971748980190415
425 31 8 -10.670236869371315 -3.361495910335867 -5.5793401116878085
426 31 8 -11.809339680702125 -3.7457212712034074 -5.7009591511922455
427 31 8 -10.81034638328051 -4.678803723083992 -6.931193957729233
428 31 8 -12.577267921454146 -4.9814728408578155 -8.170284659445414
429 31 7 -13.118267460028518 -6.372615551124407 -7.911344230014707
430 31 7 -13.57150895449132 -5.675623748987436 -6.683370524072464
431 31 7 -12.4647539998696 -5.521953505451362 -5.7025318266258145
432 31 7 -12.519078103668514 -7.5789746388305455 -5.483959449391394
433 31 7 -12.809552886200313 -9.138752887031306 -4.474916110129385
434 31 7 -13.339692204523491 -10.325322868448952 -5.703604466911766
435 31 7 -13.250008415057971 -10.712626220327724 -6.910258579531162
436 31 7 -13.768751780182315 -9.20057150679392 -8.16902224820229
437 31 7 -14.765900605015737 -8.250212887241407 -7.93111155425268
438 31 7 -16.201270570309326 -7.220368178796215 -7.288562376050104
439 31 7 -14.947443587162624 -8.032825966649904 -6.6891817402246625
440 31 7 -15.311650643670278 -8.82104313781862 -6.1493875531486495
441 31 7 -16.80747616160814 -8.620890171572086 -5.574389768945429
442 10 8 -3.0315180265243153 19.055721891982703 1.5403049936686153
443 10 8 -2.3996594743176654 18.030075761777944 1.9978106843140493
444 10 8 -2.98559249259323 17.779692599193222 0.702328869937184
445 10 8 -3.1630090188444457 16.957396637516947 0.01598148462351744
446 10 8 -4.005181105962276 17.87648849224763 -0.8486043453464861
447 10 8 -4.1335171007143146 16.918481758987472 -1.8198145775139258
448 10 8 -3.7639416245008857 15.622030493475236 -2.692162648226054
1082 77 10 -3.967272432359118 15.505862704662281 -3.9534748641731476
1093 77 10 -2.9960038688814716 14.165105231036176 -3.795185396897089
451 10 8 -1.425402471243331 13.483610769916051 -2.884775807997759
452 10 8 -1.3046725304739715 12.133012709778349 -1.6662830562873097
453 10 8 -2.289057310084216 11.240215177795394 -0.8156802771220643