# Generated from readdy-to-lammps

1005 atoms
620 bonds

10 atom types
1 bond types

-30.0 30.0 xlo xhi
-30.0 30.0 ylo yhi
-30.0 30.0 zlo zhi

Masses

1 1.0
2 1.0
3 1.0
4 1.0
5 1.0
6 1.0
7 1.0
8 1.0
9 1.0
10 1.0

Atoms

1 1 8 -14.266781532232395 -9.260296508815586 -10.96860661129603
2 1 8 -13.862920256895576 -9.161789070714816 -9.493021232938826
3 1 8 -13.51479362792117 -9.689547159145564 -11.354012318817253
4 1 8 -12.561289869879365 -10.196568584382613 -11.655968360076164
5 1 8 -11.16251997514643 -9.528397914388467 -13.631474328363902
6 1 8 -12.312250346078986 -7.96266480529112 -13.952514114107219
7 1 8 -13.093082607942701 -7.950654202621645 -12.666360009044773
8 1 8 -12.488473676990974 -7.020715788180477 -12.411711613907876
9 1 8 -11.876062846627704 -6.180836640686568 -12.367007044842923
10 1 8 -10.955925017745232 -5.35344817596495 -13.352633127547763
11 1 8 -9.840438387127767 -4.7121063833736345 -14.312747721330275
12 1 8 -9.21667104481305 -5.234515317672979 -12.920146944707579
13 1 8 -8.483495000696275 -6.339154479512031 -11.464365468029708
14 1 8 -8.028685136282073 -6.919379665704528 -12.200812302584039
15 1 8 -6.946240047023697 -7.258011780444937 -11.922019545072342
16 1 8 -6.658572560983596 -7.520817329510155 -10.723461490837208
17 1 8 -7.969584991047638 -6.851926321476631 -9.443017219188517
18 1 8 -7.584232416561946 -8.409695089798204 -9.947087538487125
19 1 8 -8.621233103000952 -7.863153892957486 -9.98897934692189
20 1 8 -9.52254463976932 -7.0728484935156075 -9.042302909677286
21 1 8 -8.44121522182516 -8.13404658373924 -8.647362136051804
22 1 8 -7.156854218037298 -7.7436290975715 -7.960766672991379
23 1 8 -7.5763086817797225 -8.781212103411171 -8.860855917939256
24 1 8 -6.265614491936692 -10.021142200393738 -9.166689441506065
25 1 8 -5.901593121023268 -9.712904126541517 -7.690799038618927
26 1 8 -4.917428128454987 -8.192000945026809 -8.584528834378117
27 1 8 -5.297341396720057 -7.369633475258802 -7.404877188750298
28 1 8 -5.867473440153343 -8.851314771711042 -8.324092612543296
29 1 8 -5.490750874901405 -7.95817704081737 -9.87949097598695
30 1 8 -5.6477856671898365 -9.178902285184543 -9.452903312955971
31 1 8 -5.0622138614133885 -8.773768220815304 -11.016658240071727
32 1 8 -4.019475863561936 -8.889475049511626 -10.811870296751795
33 1 8 -3.618143358500275 -8.709891637376039 -9.332501113212658
34 1 8 -2.3945077974022047 -7.817657993287113 -9.57918339928629
35 1 8 -1.4987824550351858 -7.139354045510089 -10.111533338267728
36 1 8 -2.1397098688491956 -8.234582521630085 -11.00173280317773
37 1 7 -2.9971307284581457 -9.03759878205932 -12.418749265246273
38 1 7 -1.599176581267959 -9.3625851261472 -12.371258751239623
39 1 7 -2.681467461008759 -7.8040173751705355 -12.571573363470158
40 1 7 -2.8986499031266995 -6.224988081649433 -12.234521235103148
41 1 7 -4.389276538418913 -7.224767637567153 -12.383263276162547
42 1 7 -5.774041964338819 -7.489324470784275 -12.12732894822254
43 1 7 -5.558124566426352 -6.339134746149114 -12.250001997171111
44 1 7 -4.902395415181492 -5.349581802417903 -12.749380419548363
45 1 7 -4.010122562935098 -5.74534296470101 -13.213294207373053
46 1 7 -2.5162957620357003 -5.071243300283699 -12.73100565448984
47 1 7 -2.813117413781561 -3.906566269571409 -12.124929079409766
48 1 7 -0.8540935374190897 -4.183083582706994 -12.668116659102976
49 1 7 -0.6961651602486587 -4.5409295423476115 -11.75282968902781
1050 68 4 -1.9387712272326196 -2.7335255872599693 1.8704643176125986
51 68 5 1.8668674805703318 -3.8836654062357914 -7.880951026130873
1046 68 5 0.6589356320495724 -5.482805718593814 -0.7357804232972656
53 68 5 -2.3742768130088887 -4.972212595933473 -0.1865573557825684
1042 68 5 4.726918024094076 -2.588436703794709 -1.5932201928054797
55 54 8 4.229023746481864 -7.233620321423329 -0.06844384928091483
56 54 8 4.208852623556697 -5.644243364652296 -1.9260174456267325
57 54 8 3.8967382594495117 -5.806963227521905 -0.4734976376813572
58 54 8 2.7327118944872857 -5.0581433470789845 1.1982173626129318
59 54 8 3.316965641691424 -6.270650224331502 2.0543962860777967
60 54 8 1.3256786589635352 -6.163525501268024 1.80499690793001
61 54 8 0.9496417057687828 -4.572574019880612 2.7224891792360495
62 54 8 0.5165905634074222 -5.792773330574604 4.0657739058511
1007 68 4 -1.949127181710157 -9.914990746752089 6.9131953077177695
64 27 8 -0.08658436461637742 -6.337096197619839 0.5029030858975383
65 27 8 -1.3826575724940986 -6.685384871834851 1.4565388329510216
66 27 8 -2.206904763438033 -5.481688023074032 1.5877760776003813
67 27 8 -1.2907858420844618 -5.63351914134281 2.554281438913024
68 27 8 -0.8728116673884617 -5.4191874047933295 4.203003736483854
69 27 8 -1.3207332338662692 -3.834585614639796 3.9485311039915727
70 27 8 -0.7152067526764102 -6.06984952038001 5.143467566099485
1036 68 4 -2.4393414720935174 -4.42550274085985 5.896231051655214
72 68 5 -0.1622026284573919 -1.4821874480369264 1.6447067264777282
1009 68 4 -1.4211514565880268 -3.678226850095054 8.51541086638403
74 56 8 -2.644593929331573 1.7847589499244525 1.3692967950753605
75 56 8 -2.5037638914000593 0.6695595809719372 1.318969354187604
76 56 8 -2.3515994631128088 -0.11111304258034213 2.036902282730111
77 56 8 -3.1945412663703094 -0.6534980958983718 1.238706597096486
1074 68 4 -4.913388791770669 -1.1500898466032943 0.9423090595968172
1037 68 4 -4.112692059353323 2.099624357929972 7.553965019168749
1017 68 5 -7.636475629885689 1.2738533938152752 6.000193107043478
81 59 8 -3.652963063946429 3.1145967958361944 3.345929436745505
82 59 8 -3.7553218294300192 4.227607800380347 3.2274343490214483
83 59 8 -2.0356390985083332 3.940987045962417 3.61843010715418
84 59 8 -0.21104694154403286 4.108146937824864 2.844256733788553
85 59 8 0.17844095650739056 3.3217028424427992 3.5113581386837747
1079 68 5 3.486001749280444 1.869769733191925 -0.5558728070511632
87 62 7 3.2620880817736206 2.411876696257378 3.276821493877357
88 62 7 1.469760247316731 1.8605266872825739 3.7950313238368287
89 62 7 1.6550110794772694 0.6106576824698552 2.6802393990970894
90 62 7 2.6413160459120366 -0.12167363503269521 1.2869421122174838
91 62 7 1.8494426257390832 -0.8992786960983012 2.0418379303350602
92 62 7 0.9827655976588096 -1.3466354962722848 1.078058833615862
1044 68 4 -0.7806524125066804 -2.4963774824305123 -2.1389733193378664
94 58 7 0.3392373424514752 1.01503999657911 -0.6169796701437673
95 58 7 -0.8140986276631658 1.2306872831732985 -1.433418692370985
96 58 7 -1.2851990653728702 -0.18682065531229033 -1.5705244788425246
97 58 7 -2.7518227949716874 -0.8117929851342229 -2.0559919166989804
98 58 7 -3.42135670194503 -1.9336331979493069 -1.1279998255893104
99 3 8 1.750643168585624 -8.470628745558022 0.8775639718157127
100 3 8 1.0483582936100537 -9.511563770181734 0.2851767345736588
101 3 8 -0.024088497740590045 -9.173369960031433 1.9690021309631753
102 3 8 -0.789817238212125 -8.47255012626137 2.0743274346459266
103 3 8 -2.2558015782921137 -7.837618668737827 1.1265128646319558
104 3 8 -2.8610435103212395 -6.994432160521581 0.07695968001262089
105 3 8 -2.162119319563536 -6.427402002478228 -0.5968843102990637
106 3 8 -2.041376876022926 -8.099428425247451 -0.2963713659367517
107 3 8 -3.14454428649071 -8.230491899278473 -0.7379940048960955
108 3 8 -3.911495560445846 -9.670798550085117 -1.4735038906108588
109 3 8 -5.413284155816599 -10.767258008945976 -1.5862681260144837
110 3 8 -5.14059496939355 -9.554984620603037 -2.3822462908255106
111 3 8 -5.0190972219876135 -7.772657816205394 -1.9148222686211678
112 3 8 -5.1983779862976744 -9.424277537026319 -1.3036133759362691
113 3 8 -6.447807352617198 -10.22654625777952 -0.1897295187230822
1024 68 5 -4.19161519883429 -11.138193560126968 -2.015521105189428
115 45 8 -6.201671322299336 -10.325573488073399 0.9788623511489508
116 45 8 -5.205859854288347 -9.688713397300608 1.8975197886280843
117 45 8 -4.474353915686375 -8.60260788787225 3.092188691019245
118 45 8 -5.449762154368231 -8.611913383314441 2.1189500344519314
119 45 8 -4.396172464281452 -10.037431923684197 1.0287980222370272
120 45 8 -3.611932227802584 -8.972707041419842 1.2615703038146717
121 45 8 -3.39604600526396 -7.642015114149735 1.8882260759545464
122 45 8 -3.3168776294874616 -7.650519448202521 3.267609038797471
123 45 8 -3.66918757535264 -8.968249112588152 4.705528045680921
124 45 8 -2.3379083912662844 -8.744077734626597 3.69889600220227
125 45 8 -3.261216947389362 -8.553121884509789 2.687833783288203
126 45 8 -2.2717699002074334 -9.522362747193538 2.445705825966047
127 45 8 -3.989611145010378 -10.459053971371745 2.3444913572866826
128 45 8 -4.826978206386139 -10.932230185566223 2.818831805433758
129 45 8 -5.630160981814036 -11.943928251792487 1.9874312907750156
130 45 8 -6.845264927949836 -11.48212556831491 2.1976743229070856
131 45 8 -7.20353528970986 -12.648324847089356 1.1545250761053898
132 45 8 -7.953201017297724 -11.86245433996456 2.0114685411260402
133 45 8 -8.974240796586031 -12.811327122963675 2.41726531831926
1084 68 10 -9.42521698741223 -13.716218389674218 2.2980119891712025
1025 68 5 -5.9775382332179055 -14.868998802258627 -5.386173308900952
136 42 7 -6.092223919487779 -16.463345670194176 -1.2109599017244612
137 42 7 -6.585926390513636 -17.712882131449753 -1.6386355178197973
138 42 7 -5.081152810533085 -17.208196462061604 -1.9639565955563365
139 42 7 -4.093778688987553 -16.72753577821879 -0.36467942666778713
140 42 7 -2.458256497285029 -16.133062212252025 -0.5589870912333734
141 42 7 -1.680529765368295 -15.423534031675851 1.2059839406021584
142 42 7 -1.815359029368551 -14.90437087605735 2.331499993742019
143 42 7 -2.812372051729688 -13.660130020559436 2.2576285900243858
144 42 7 -3.8815248621594107 -14.092055942684189 2.4520755204647724
145 42 7 -5.0297191049878025 -13.275936358259349 1.1570692758650976
146 42 7 -4.427897174412748 -11.710540603432053 1.441600617185325
147 42 7 -4.621337342257239 -12.050845062080267 3.107032812826554
148 4 8 0.5762028496577865 11.239572085089439 18.64785540348609
149 4 8 -0.39137838578103 12.40700644322328 19.186371793083616
150 4 8 0.6421221302031691 11.770756843034771 19.916767994170502
151 4 8 0.2944150800830393 10.763253652501026 19.945202507066227
152 4 8 -0.8479570363927241 9.695758407071478 19.00695041198884
153 4 8 -1.7662892826082683 9.343364552712782 19.927831540701007
154 4 8 -2.951765559572436 10.016664315486171 19.563126126660148
155 4 8 -3.2369491294662693 9.200506722481908 18.90555976721536
156 4 8 -3.003907935517712 9.988356078314226 17.2698934299704
157 4 8 -2.4919469743844065 8.449166795458185 16.886684525360124
158 4 8 -2.521951661629831 7.3932849499361435 17.526300857760045
159 4 8 -2.3230840947874367 7.475587730545519 19.039527220035232
160 4 8 -2.697416604657013 6.755013407658457 20.491839707840366
161 4 8 -4.269356261606999 5.4533576582218375 20.227630469173256
162 4 8 -2.6292643571414396 5.706161966825739 19.844368787781345
163 4 8 -3.4286752078297007 5.555999535695336 20.808711004320735
164 4 8 -4.167478983344313 4.470300704223078 20.71817211408777
165 4 8 -3.3818390934256186 4.308584498314713 21.5041533517639
1031 68 4 -4.118929893603485 7.446590383981463 20.804600001837546
167 68 4 -3.507891429607498 7.949924297339174 21.60342323281141
1043 68 5 -2.974905394632499 4.565530141855442 23.564415700779527
169 63 8 -3.4465480618399327 2.5435862409255163 23.789494438038677
170 63 8 -3.6840795714655066 3.834933552532608 23.632205113227673
171 63 8 -5.5534035257841525 3.4403477292957936 24.07967086217822
172 63 8 -5.043704056489497 2.01518708479201 23.326863838533498
173 63 8 -4.903669376733684 2.171864818329626 24.88317638437075
174 63 8 -4.1418080038476806 0.8767472575859475 24.001344169821955
175 63 8 -5.085031209954593 0.5723964384148024 24.983169112965157
176 63 8 -4.112854472020294 -0.022902122896689258 24.777664676207756
177 63 8 -4.50809791402529 -0.6220814193119594 26.562841167080045
178 63 8 -3.770182719494244 0.32049184535664443 26.613403738089204
179 63 8 -2.9713898327207855 0.28689454237696466 27.338777226578564
180 63 8 -2.035893461154766 -0.565979525411159 27.221405033309487
181 63 8 -0.9650566562760065 -0.21579699840406413 28.769055872209595
182 63 8 -1.6999529658637087 -1.451037794519864 28.32341875476949
183 63 8 -0.6071043210054748 -1.609145015461584 28.79517969013593
184 63 7 -0.10076738322176183 0.08284787943090326 28.32234598216532
1028 68 7 2.0125775754287565 -0.19242123118253265 27.404135736959923
1023 68 7 4.199824247894808 -1.6868852813751776 26.477921058487972
187 31 7 1.586721825586674 -1.1325937546509353 24.636704489239786
1091 68 9 0.7754454384530624 -1.8722874737286697 23.815292450405043
189 31 7 -0.8532435030727872 -2.2380588627086317 23.830718276833352
190 31 7 -2.633345231094385 -1.5513100043613433 24.651392425578784
191 31 7 -1.94454144095679 -2.0478056917451393 23.43660455205362
192 31 7 -1.9972133647036954 -3.8282590335953004 23.60785453401521
193 31 7 -3.2809593990634602 -4.764548387928909 23.761666690687726
194 31 7 -3.944004215005298 -5.979097627439943 22.54409166919479
195 31 7 -3.1200326314386913 -7.334867441796435 23.30162152847758
196 31 7 -1.4187272735117553 -5.996186140255996 21.429686835421332
197 5 8 2.81312612792753 -2.7927823407704055 13.097672765048486
198 5 8 2.7059354232589166 -3.436325427548552 12.017302360988957
199 5 8 3.973776392519926 -3.8655345095958733 11.992013314750166
200 5 8 2.5287037504880296 -4.090488821774593 12.916881239791376
201 5 8 1.5869673189065734 -2.981426529956222 13.32653783989389
202 5 8 1.1022750503482925 -1.6276394543300958 14.136612371690154
203 5 8 0.9339504079427473 -2.918467339802636 15.254059006061686
204 5 8 1.841213577834318 -3.4922133186916597 15.827741008406552
205 5 8 1.7110554180313007 -2.7565779921241558 16.75871183721138
206 5 8 2.4234150267897947 -3.6978735048579834 17.759035152841953
207 5 8 4.237952589356611 -3.5755617085334537 17.466629519561195
1056 68 5 2.5737898252699885 -6.664094278376339 16.24396117560979
209 65 8 5.097301345892964 -2.665636275315882 15.976952379047477
210 65 8 4.551038595749107 -3.7818576414432012 16.11840089421767
211 65 8 5.208407090872265 -3.1439124747097655 14.77808101484047
212 65 8 5.1239377386323675 -2.8181538461459468 13.482327684891882
213 65 8 6.565467945507186 -2.4168459006289775 13.213694353906703
214 65 8 7.272556289301966 -1.320015393603758 12.030319842509769
1080 68 10 6.632888092835872 -2.5119539240440605 12.120133904704657
1019 68 4 6.394111845608788 0.8957591449414248 12.658856507258685
217 30 8 6.18190994944454 1.5020448934556656 9.022117319950896
218 30 8 6.178489161202027 0.4464373754722073 8.955443161728185
219 30 8 7.30273519869519 0.20777933491932107 9.289728679850727
220 30 8 7.975645206551625 0.7804817207247061 9.737003274301488
221 30 8 6.571510491498238 -0.1646470000692916 10.272859022557633
222 30 8 8.305624998134762 -0.35157802218524226 10.052055318273759
223 30 8 8.453929652456427 -0.9748469297450235 8.736993713579816
224 30 8 8.284279661444948 0.4848771194373884 8.252634160918577
225 30 8 7.542784800686892 1.3081210883781706 7.178992274748938
226 30 8 8.357845333862828 0.44313319307516474 5.642640704158497
227 30 8 7.288847646072151 0.904386768385672 5.065980757013071
228 30 8 6.919346988115757 2.454428761841475 4.240581385225228
229 30 8 8.183580158347837 2.091731253131302 3.8187720105948806
1054 68 10 8.851886533215993 1.6634086490482158 4.946544475104892
1076 68 10 9.88454501986045 2.5767426215902076 5.6739744754949
232 30 8 10.415942260385382 1.2393254388643364 5.764529741136024
233 30 7 9.779905614410529 -0.5320128524880646 5.705518145199692
234 30 7 9.634112751714744 -1.4488983174719894 4.393544598745428
235 30 7 10.720686865714889 -2.4693968200943037 4.108258332312807
236 30 7 10.945002527301355 -3.483308223535938 2.7588822010711467
237 30 7 9.996452995264733 -4.674148832999082 3.3952296640091526
238 30 7 8.400312269403798 -4.955335651796671 2.2347459094061883
239 30 7 7.084943106312519 -4.168783140383472 1.2910408750428564
240 30 7 6.301511056380374 -3.6359219092595336 2.8283962696703666
241 30 7 6.662852944396367 -2.292713819450622 2.3843580717526742
242 30 7 8.359375665720222 -3.0366890665733397 3.1093486047365277
243 30 7 8.466182551631016 -2.8947469547392264 1.8246616994888014
244 30 7 9.189109062801966 -1.8806126466929798 2.1518869892441357
1090 68 9 9.198800648785928 -0.20553322826424156 3.3291086657570146
246 68 5 -0.1765909827095628 3.825762157463781 4.7588710026340815
1052 68 5 -2.7704079031597533 2.840819412401543 5.7555184583351435
248 32 8 -4.092643927634317 2.4978032490137965 5.977707406351403
249 32 8 -3.790079834532555 1.5618778393609465 5.824138994278141
250 32 8 -2.711924685636043 2.172016317315443 4.653343894946694
251 32 8 -1.2228226061092837 1.6200827807388112 3.631035179020301
252 32 8 -1.0911006996180448 2.8183849013598654 4.464872638691978
253 32 8 -1.6382805527911377 3.3343623144636148 5.910582118099823
254 32 8 -2.724913104936582 3.637219843240265 6.845327605241226
1071 68 10 -3.0596997846806113 4.471707922189612 7.505581910035691
256 32 8 -3.9403311152566647 4.71456809312048 6.480419027353326
257 32 8 -4.4744345886186 3.6146260381257482 7.135753764586342
258 32 8 -3.6261004060258237 4.9263640025417 8.140048038822881
259 32 8 -4.68920963738105 5.592538990530962 8.665160087378737
260 32 8 -4.645858301491386 4.998672476328287 10.029913335428025
261 32 8 -3.7227193982185685 3.81246732871072 9.704468966025335
262 32 8 -2.4140726495995652 3.127629985657334 10.076808294342598
1069 68 10 -4.527068069958668 2.5056063195267 10.216862234623065
264 32 8 -5.239759604149107 3.0145219067529534 11.281781749161736
265 32 8 -3.8166872274570074 2.8003650741142385 11.919730348086539
266 32 8 -3.4239610608657753 1.7415249452019164 10.888976961343426
267 32 8 -1.8244241329975923 1.3080261246042257 10.796046535086663
268 32 8 -0.0331010074441869 0.8028564170694636 9.960804418268532
1034 68 4 -7.026824743949607 -1.9313877400830275 11.240482805715265
270 47 8 -4.557738573084509 -0.5675569020479443 14.652951637447195
271 47 8 -5.058097264788629 -1.6896184887417016 15.18873471259862
272 47 8 -4.080610430514035 -1.8345829185550486 14.674533880097826
273 47 8 -4.259089225170422 -3.5116862408907763 13.907846579141214
274 47 8 -4.76467249315344 -3.7370263058468662 12.634092536841093
275 47 8 -5.373664040043197 -4.867814661957125 11.467369481602814
276 47 8 -4.279388348339292 -5.4288130731074 12.263672629156707
1047 68 5 -3.923061749162729 -1.4426814026710078 11.659616361470283
1012 68 4 -3.810413428913889 -1.9113082668661023 5.311994646907456
1026 68 4 -7.189590568947404 -7.217559553920739 9.731175869634171
280 50 8 -7.6262969201581035 -0.560197121883676 7.924545297875406
281 50 8 -6.400137759005591 -1.7857700146765028 8.53599119441565
1075 68 4 -5.856061758080496 1.4854353184275269 9.581509312356879
1078 68 9 -4.7771427399315485 -4.156211168253808 7.440099707026108
284 64 7 -4.801416396690772 -5.280334051378111 6.638535251782471
285 64 7 -5.11219365641947 -3.9290872808458746 5.531967067447892
286 64 7 -6.262958419171733 -3.231589457454893 4.4711460470682285
287 64 7 -5.59184067257446 -1.7954770333994552 5.335098558360237
288 64 7 -6.704854743214717 -3.1400721526530715 5.818996491361612
289 64 7 -7.534502931140221 -3.98866299873394 5.3661514066069325
290 64 7 -8.651331979543574 -3.8090883313799804 4.330484505395847
291 64 7 -10.19050251313867 -4.907949487831877 5.120530636310071
292 64 7 -10.956694675569059 -4.311936983272925 4.454589969694422
293 64 7 -11.790055856904191 -3.076337191797857 5.130779653027472
294 64 7 -13.026607268587151 -3.074686934622773 3.654457359130422
295 7 8 1.7036972883638337 14.100506850547827 6.015671467839118
296 7 8 1.8235422963620365 13.280514364975135 5.288747887018305
297 7 8 1.521767024659118 15.01072745134644 6.860539573153427
298 7 8 -0.42904192777339734 15.669870105742303 7.963064295188734
299 7 8 -0.5219957923908307 14.165408290073053 7.36447399283293
300 7 8 0.4471969757130105 12.75102225658573 7.553901608612283
301 7 8 -0.008999121592064308 13.95137599788093 8.346657705405626
302 7 8 -1.124110002991502 14.650894071163458 9.658286191803256
303 7 8 -0.6196053308487874 13.011760654797573 10.18496580648724
304 7 8 0.3319784229221927 13.933741913023857 10.370831184942624
305 7 8 1.0195846138820521 13.309228436761412 9.305046388165879
306 7 8 0.1036539004386889 12.074911932903596 9.148969686028053
307 7 8 1.9334319797588129 12.356344604101489 9.954030365874276
308 7 8 2.6404607246371743 11.581597264240221 9.83931701623057
309 7 8 3.9792615906045246 11.458200408584986 10.149178413576086
310 7 8 4.180098267599245 11.195403378456781 11.590282203108634
311 7 8 2.8698002941594 11.798001455344133 11.130870849212815
1011 68 5 6.174218769556291 9.033401982275691 5.6933220113850025
313 46 8 3.2123842900871984 8.151720261869226 8.185999699916046
314 46 8 3.948848797177795 7.854525606176985 9.235966169460847
315 46 8 4.442407796489346 6.591729549317547 8.927273985183383
316 46 8 3.478227461167044 5.652771398022306 8.852552142663155
317 46 8 4.241819063878595 4.345132282505412 9.031829066944116
318 46 8 3.431935277548376 2.654908135818483 8.322783397154843
319 46 8 3.4514589372001936 2.176635135013375 7.032178970917487
320 46 8 3.953612674729822 1.0507780626247059 8.168215048358519
321 46 8 3.9465408274164826 1.195315512351974 6.745751700869851
322 46 8 2.726430986324715 1.843011825745084 6.174264939450401
323 46 8 2.33428528955256 3.090751360799156 6.46458340564991
324 46 8 1.329482093625505 4.563572976311137 7.633718053462068
325 46 8 0.258519810107515 5.01487763486041 8.833086579880469
326 46 8 -1.0234986962745134 5.683011349913986 9.00291194336285
1064 68 5 -0.1364251405689274 5.648353498715911 5.056762369268711
1088 68 10 -1.3959154191788279 2.907178743739037 6.807903364507476
329 2 8 -1.6437788815300944 3.792034278879951 8.155927444749347
330 2 8 -2.5075487344763863 2.3665439701419615 8.63788804807452
331 2 7 -2.2158078817755467 0.9990925508938464 9.432922538028034
332 2 7 -0.8965528790947794 2.088608123875749 9.099282637259511
333 2 7 -0.8064299935426629 3.2287747870458983 10.19953529095067
334 2 7 0.35373998880026 3.4974618402579316 10.902398368881224
335 2 7 0.9793797220342464 2.970036193533698 11.868916812838622
336 2 7 2.0766516725413906 4.259688259782035 12.413838958063053
337 2 7 1.9056604529753605 3.5918146941227054 13.889538612165959
338 2 7 -0.2844905084112144 3.8764358658592513 14.720073144792657
339 2 7 0.363513062230622 4.899625603023116 16.054206041122686
340 2 7 0.22761618633977262 5.7202376112238085 16.830275996415022
341 2 7 0.2835715406881623 4.627581389356818 17.665692822024965
342 2 7 0.594744574585145 5.781351099772817 19.07751924546508
343 2 7 0.6149184181401213 6.994738342199541 19.757410012952057
344 8 8 7.907630040569406 18.97237414270043 -9.52577619920085
345 8 8 9.198601620749297 18.551686600946525 -8.388072422300542
346 8 8 8.514979967465136 17.60145571152907 -9.528226706149786
347 8 8 6.905729506134432 16.788424559891606 -7.992893266768624
348 8 8 8.175393048372843 16.82945464489088 -6.889650081277204
349 8 8 8.717961203732688 14.745332459094918 -6.911159080297947
350 8 8 8.234209255173367 14.547085218415088 -8.448940787892273
351 8 8 7.644382031230599 13.296560844308612 -8.609270741390338
352 8 8 7.114312044338435 14.780030323613286 -9.621061769561424
353 8 8 7.90271306176568 13.683270737697645 -10.060733732497658
354 8 8 7.9202899913381595 13.229218109156166 -11.441197325888965
355 8 8 7.158897227529367 12.323818464595123 -12.683463983881078
356 8 8 6.70630810206959 11.5749539703678 -14.247165661182166
357 8 8 7.249426450369136 11.322799094445095 -12.172101982265566
358 8 8 7.876757759274228 10.641502706965891 -13.45906858383133
359 8 8 8.556545294817798 10.801971870670219 -12.437200139266645
1057 68 8 9.18516203713135 7.695420859283465 -11.862782267074525
1048 68 5 8.84955023791866 8.493811073520327 -11.23958867465646
1066 68 4 12.098130820142693 7.240125298918378 -11.19998908401553
1051 68 5 13.801377834080139 7.440570398316352 -11.917306418832172
1077 68 5 7.2341680347283965 2.6925563002930546 -11.590078453655487
1063 68 4 9.7603348505447 1.4184312295061126 -9.454534560248813
366 35 8 8.972265752225255 2.9081053962147205 -11.53441877607494
367 35 8 9.383687409676552 2.068305608383366 -12.847767851440631
368 35 8 8.939946172458164 1.6894923080455968 -14.51827246220398
369 35 8 7.805173161470428 3.173925633540244 -13.23522352556151
370 35 8 6.249937373881529 2.8273897997555086 -12.923856857783825
1038 68 5 10.119978174648816 9.43504549205224 -13.23994747713697
1035 68 5 15.48043243138222 8.647636900785086 -18.563885046325314
1083 68 10 13.916653214568361 5.879913137572979 -18.1876746332597
374 43 8 12.296407231482789 5.781693799848121 -17.436317474461102
375 43 8 11.54078601028613 4.737438838908336 -17.3567803656902
376 43 8 11.291134334234851 3.501437215108034 -17.358625447516708
377 43 8 12.475081089879495 3.6872020312352394 -17.451022407710088
378 43 8 13.261117483258232 3.423178757443628 -18.574002497599437
379 43 8 13.742225796429745 2.3847240471490085 -18.339735255309368
380 43 7 11.614022095798122 1.9993994469886254 -18.0317073947745
381 43 7 12.11767884552188 2.107645175727137 -19.539235709970242
382 43 7 11.834793812506254 0.8561683011617331 -20.64344939231999
383 43 7 11.119797630949348 -0.6630722835161953 -20.163320851152246
384 43 7 12.454557597552265 -0.6141089911518269 -20.936271696966543
385 43 7 13.303464917212628 -0.16964410008788677 -21.832492274441268
386 43 7 14.664914377816823 0.10675299590536017 -21.46738428339563
387 43 7 13.825281622789385 -1.3543708507772263 -21.41114081180386
388 43 7 15.430908470935666 -1.4697753242550784 -22.980656433661537
389 43 7 16.206878995092318 -1.653372716313299 -23.88353614733933
390 43 7 17.44798639694661 -0.9592594365234197 -22.751019047761236
391 43 7 17.634331291200134 0.030855606851609787 -22.305461994050397
392 43 7 19.060786754765623 -1.2404382994100667 -22.62662815814758
393 9 8 -4.712301997613685 -2.9583430502235935 -16.986173376704933
394 9 8 -5.44348039644126 -2.3138924070658433 -16.417772309428237
395 9 8 -5.626512508669117 -2.4800386478323113 -14.960216932818279
396 9 8 -6.07549632482748 -3.900640508449311 -13.508328769266946
397 9 8 -7.187045418477601 -3.928582589358727 -14.224574935001852
398 9 8 -8.963701202791055 -3.71144494148601 -15.09609670840041
399 9 8 -9.429268327799715 -2.7876321616567856 -14.06822512319934
400 9 8 -8.218808233074425 -2.914231483179196 -12.874943863659858
401 9 8 -6.960569724355815 -1.923157168657734 -13.56637170088114
402 9 8 -5.552839573993434 -2.5912610987697438 -13.566863037499317
403 9 8 -4.438101675661282 -2.35546604750951 -14.193644690318408
404 9 8 -4.5406624242488896 -1.7501053605995114 -13.406213823592681
405 9 8 -5.290364284749761 -0.8210990204248767 -11.958588068233173
406 9 8 -7.166544301621922 -1.2665985983050503 -11.45486732702236
407 9 8 -8.32826018512127 -1.4111381592477275 -9.98685834543596
408 9 8 -9.353563006337268 -2.7981627014169725 -11.008177282688928
1010 68 4 -2.0750933926290576 0.39147764086199355 -9.80489979618841
1022 68 4 -7.826900202191258 3.3792060835560607 -7.143463467028861
1016 68 4 -7.120684523441152 5.126866070466866 -6.408877866334593
1029 68 4 -1.4909180975445178 -3.2281209678639247 -6.846615171066061
413 52 8 -4.492067703104836 -2.1857901181034514 -9.164991426037078
414 52 8 -4.5435645758556165 -1.6348450461040434 -8.205642151495312
415 52 8 -3.5216956034309996 -1.6363117354946146 -8.019524854248125
416 52 8 -4.322991673854397 0.12135184125892962 -6.7797949727287
1021 68 5 -7.571382538829245 5.183851426968473 -8.763868701341872
418 33 8 -7.610925093578349 -0.7888495404135009 -8.150612089801687
419 33 8 -8.125482928185303 -0.8965381820001647 -6.770100252102055
420 33 8 -7.541087403982817 -0.5835141850509317 -5.144249589710784
421 33 8 -9.569785953183343 -1.3229133544794558 -5.848778510320332
422 33 8 -8.847215023240835 -1.8967255773983616 -6.600295750164284
423 33 8 -10.039266064804776 -2.2916869682319683 -6.299000661736819
424 33 8 -10.782652654003867 -3.1924379022694294 -6.8534490790573575
425 33 8 -10.270962092834347 -3.9378139092269038 -5.450840937560372
426 33 8 -9.756426506076181 -5.468679129309028 -5.359940137594853
427 33 8 -11.06425240897374 -5.046991774410445 -6.676651826450809
428 33 8 -12.096045358021483 -5.476023541499987 -7.6671725168457305
429 33 7 -12.712938686943021 -4.509887789211181 -7.8166436585823655
430 33 7 -13.161275683688377 -6.2481954217735645 -6.928039646848387
431 33 7 -13.553740974478794 -5.527509775934774 -5.812122569858096
432 33 7 -13.857369344387475 -6.899212288958666 -5.06361986323335
433 33 7 -13.113699985018295 -7.781899918467813 -5.545813812060822
434 33 7 -12.525727317860783 -8.891233703920609 -6.16663738449122
435 33 7 -13.54982027210419 -9.714283741546197 -7.695663234162332
436 33 7 -14.808299182748803 -8.940886821876806 -8.680857941048334
437 33 7 -15.365388218994125 -7.938945767671673 -8.425268464626912
438 33 7 -15.90207335794138 -9.272893749080612 -7.522287833181915
439 33 7 -15.017845781227503 -8.361568922881162 -7.336310042256982
440 33 7 -15.432067063571836 -8.279258089550686 -6.206223192122688
441 33 7 -15.206400362948948 -8.594008915121696 -5.176391524066358
442 10 8 -1.1719177182929919 17.432979837269478 1.7508606274614904
443 10 8 -2.426361402906882 17.35397449759542 2.020595180010682
444 10 8 -3.330951560223059 16.944831192038418 1.648281132292648
445 10 8 -4.522037351877589 15.707098711802988 1.0736621193166462
446 10 8 -4.416267296367829 15.924332726192691 -0.015263492874770097
447 10 8 -4.734323050018606 15.151243262804922 -1.5429881192505601
448 10 8 -4.3689654954650035 14.714648812297218 -2.4859425308665557
1082 68 10 -4.085172366722402 14.420895234436335 -3.417500672100513
1093 68 10 -3.768870737078652 13.667585307111093 -4.4346954183894685
451 10 8 -2.6687265358434824 13.306016337410961 -3.219413512540606
452 10 8 -1.768463276831484 13.523207495566371 -1.8459959229656646
453 10 8 -1.015880587093919 12.005969061465787 -1.1976111530615334
454 10 8 -1.456144622704255 10.765511130448312 0.16355247088178265