# Generated from readdy-to-lammps

1005 atoms
726 bonds

10 atom types
1 bond types

-30.0 30.0 xlo xhi
-30.0 30.0 ylo yhi
-30.0 30.0 zlo zhi

Masses

1 1.0
2 1.0
3 1.0
4 1.0
5 1.0
6 1.0
7 1.0
8 1.0
9 1.0
10 1.0

Atoms

1 1 8 -16.012144502082695 -9.527468671974276 -12.938916595287075
2 1 8 -15.53492656471283 -9.386333721501147 -13.77166455889842
3 1 8 -15.928926311416008 -9.727418803760083 -15.005674062251888
4 1 8 -14.199572409065881 -8.989330719139367 -14.020220117932324
5 1 8 -14.099369469258333 -8.163845027018976 -15.423296320873451
6 1 8 -13.316576975983423 -7.765662845350614 -14.271376072218574
7 1 8 -12.584289081547531 -6.379304770852141 -14.917148178757555
8 1 8 -11.278286566813403 -5.465992939580252 -13.809566948244743
9 1 8 -12.562876946232894 -6.118643506505523 -13.019731762765687
10 1 8 -12.288337254507473 -5.675158047335573 -11.752525542428044
11 1 8 -11.224531072751935 -4.169088995899987 -10.93926893564493
12 1 8 -10.627612521722948 -4.857929442795248 -11.554164045088033
13 1 8 -9.110418055519599 -5.344072866569769 -12.086987528385256
14 1 8 -7.925452571445936 -5.57998748315479 -11.953893220772814
15 1 8 -6.893985767938021 -4.660463603524953 -12.674425308381933
16 1 8 -7.143354104699161 -5.374081426889724 -13.408013443708029
17 1 8 -5.8636864564976765 -5.094918656320472 -11.825500707916452
18 1 8 -6.986921158556953 -5.979838550404995 -11.485311427891066
19 1 8 -7.305388141105675 -7.561289037182663 -10.382121078942948
20 1 8 -8.888015951982583 -8.063820628917325 -10.143276729109655
21 1 8 -9.092608355385492 -9.726173599699347 -10.066286633459502
22 1 8 -7.662828533899098 -9.951021575729595 -9.579066389994342
23 1 8 -7.318149284050421 -8.750112739569278 -8.735336653359077
24 1 8 -7.216362427636041 -8.802522711123466 -6.749823149345566
25 1 8 -6.723829953088945 -7.831197011251797 -7.020299839461508
26 1 8 -6.805532610153133 -6.560053131854448 -6.781133040067722
27 1 8 -6.2869367258192534 -7.3280448333077235 -6.297551191421868
28 1 8 -5.380758433695813 -6.705506203947047 -6.830411956685005
29 1 8 -5.580551238859317 -7.733942489480648 -7.790991636104812
30 1 8 -4.3585844829249965 -7.9014354035485885 -8.601622165998618
31 1 8 -3.373618520317402 -7.099342828546684 -8.998763840885497
32 1 8 -4.485024335812791 -6.536622819685645 -10.313030136383823
33 1 8 -2.8873730331286307 -5.597836684482232 -10.006165658627411
34 1 8 -1.619125255011667 -6.114044581900179 -9.012983814046555
35 1 8 -0.4208740160799735 -5.986868949791988 -8.217927010304798
36 1 8 -0.9165467950460452 -6.034816222151322 -10.053124540833396
37 1 7 -0.000707612698749788 -7.164100746091238 -10.44864698660966
38 1 7 -0.33499321006908517 -7.772777812612303 -11.99548667477415
39 1 7 -1.771788946342493 -7.384112704671591 -11.129992650137938
40 1 7 -2.5204056586120345 -8.126002013976752 -11.789249427162359
41 1 7 -2.978537046995266 -7.256674268617432 -11.225320314307416
42 1 7 -3.526946344283858 -6.00323342669191 -11.148475807431552
43 1 7 -4.767593182304488 -6.3097484179208045 -12.172510270849326
44 1 7 -4.543360790461867 -6.923388834854447 -13.57061133224472
45 1 7 -3.5317772383253936 -5.920944521727936 -13.419801676947621
46 1 7 -2.6355812489239154 -5.386806317483837 -13.823650574577444
47 1 7 -2.381793768695431 -3.802210995076237 -14.081728129944645
48 1 7 -1.8595672387575015 -2.5827019225772547 -13.655325370211372
49 1 7 -1.6018986893268161 -1.9008712868488424 -14.200194194511171
50 2 8 1.4715066577928306 -1.8420422744440232 -2.8586002463499804
51 2 8 1.0019557488416002 -1.3069460565957733 -1.950351934966518
52 2 8 1.5821269143605532 -2.3477575136207807 -1.4050998054581878
53 2 8 1.2391419296453978 -2.6538894269713773 -0.16700021779005184
54 2 8 1.6551877826073504 -4.867534697232308 -0.7503637984872216
55 2 8 0.8481350848833251 -4.802358643625237 0.1709018245198811
56 2 8 1.407802980214767 -6.002738917863389 0.5368701171120658
57 2 8 0.3879709874478963 -5.6346754545701 0.9137101325841711
58 2 8 -0.38680395615811364 -5.984274552578904 2.3442820298950515
59 2 8 -0.7562032814196595 -5.349701028712923 3.5586357059674825
60 2 8 -0.3612469519105819 -4.044422676368136 3.6971246069925097
61 2 8 -0.9603523259785096 -3.8213362867449767 4.7530683991827765
62 2 8 -0.9987065538593551 -2.672686849789169 4.684564946105993
1007 29 8 -2.131445925489436 -2.7588758612459108 5.02925376875316
64 27 8 -1.9953209505611336 -3.4746192966104075 1.9557650651773446
65 27 8 -1.6441104139502758 -4.857484486282582 3.1406315115161596
66 27 8 -1.6784330123020579 -5.698105413813678 2.4298621827537517
67 27 8 -2.4700521235956465 -4.9356532605921375 2.2121841763560233
68 27 8 -3.3749362468044555 -4.215698693901011 2.6601730793550797
69 27 8 -3.8021867583170894 -3.716701951068226 4.223466189556451
70 27 8 -3.5235634690815227 -2.0984155342870894 4.405446493071308
71 27 8 -2.3112632732863143 -1.1641572413872276 4.426940239401465
72 27 8 -1.8187305390268662 0.09561762670900996 4.978393817797486
1009 29 10 -1.98941969262414 -0.6171357030164284 3.4091650326802165
74 27 8 -1.273086649748303 0.17266296212811794 3.0814373888814313
75 27 8 -2.394676546406283 -0.9342529553811765 1.6335921172317167
76 27 8 -3.5175644775500894 0.2449529957442285 2.1325783774933873
77 27 8 -4.830982057558084 1.9725977272525892 1.8662982345798158
78 27 8 -5.1105012825763225 1.5398551005091476 3.4306240633118903
79 27 8 -5.80813546497667 0.04009792575449092 3.024988329515509
1017 29 10 -4.624292283145105 0.3110093579665106 3.320241196211747
81 27 8 -3.6778381459348246 1.5847357067910837 2.940819576954216
82 27 8 -2.8928377510099668 2.2365079506029786 2.3995870989901644
83 27 8 -2.0808643910348867 3.734561483389902 2.0016263354903576
84 27 8 -1.9344230006288368 2.3667635487952765 1.4627000927324187
85 27 8 -2.4547252455333304 2.3470419359996995 3.645072037957535
86 27 7 -0.6032089046351486 2.4091210700682724 3.0766783640704833
87 27 7 -0.3476709347742361 1.470700484165195 2.084152285446086
88 27 7 0.6253332001924883 -0.015805844722232933 1.872706590423454
89 27 7 -0.04271912869512037 -1.1830528591690073 2.0408618546368764
90 27 7 0.4091094817532829 -1.8027242552141778 1.1523696745579526
91 27 7 1.6803931393206681 -0.3121954754453154 0.5595465801895588
92 27 7 1.0539758178780683 0.03672863109987785 -0.4039957897740858
93 27 7 -1.4854293029998198 1.0602923771821655 0.29860992229534933
94 27 7 -1.7101995732743707 0.08137047540162422 0.4618703761290114
95 27 7 -0.9460295411936913 -0.3902404356814436 -0.5789408822710133
96 27 7 -2.366711198391319 -0.6345492008418662 -0.6892969969326537
97 27 7 -0.5468793468564123 -2.2689212283041837 -0.8967361619735725
98 27 7 -1.933270692287984 -2.433935331977215 0.2311403856427457
99 3 8 -1.6245982263226115 -7.964798156355383 -0.7552018165969199
100 3 8 -2.4966505650816746 -8.513369494488012 0.8188664010964946
101 3 8 -1.6682838532369826 -8.315107459371017 1.9514363883079713
102 3 8 -2.8262230635977446 -7.299872121798019 2.259276043354197
103 3 8 -3.0028149341048076 -7.7307227514589965 1.2049836552369129
104 3 8 -3.9093310436002695 -6.227664757608427 1.8032692530885666
105 3 8 -4.618793110461266 -6.472922323669027 -0.1516837449285355
106 3 8 -3.660335581717367 -6.750256922670272 -1.9872963440139266
107 3 8 -2.7536096006167767 -7.420952106655203 -3.275075430419732
108 3 8 -3.4132714390872314 -8.017220048633066 -2.108424990327719
109 3 8 -2.6441013647981944 -9.908235186532135 -1.4300439371866274
110 3 8 -4.2030300002353265 -9.44059396449759 -1.687928052165711
111 3 8 -4.978699393341073 -9.833299912762723 -1.1349924029276515
112 3 8 -4.763314734014707 -11.176844518139633 -0.7085762839993209
113 3 8 -5.682526621490052 -11.32280751820464 0.8615230668677073
114 3 8 -4.549274785102973 -12.61042829183087 0.24426480434054176
115 3 8 -4.507506925003571 -11.977605997018163 1.0956086858877638
116 3 8 -4.440077360202294 -10.282505721437232 1.0631294528274207
117 3 8 -3.9012480854202276 -9.55624688090597 1.7762249393836629
118 3 8 -4.341577476679378 -8.995776584742694 0.3030248810619746
119 3 8 -5.0659500263022474 -8.530413819370095 1.5661200720763304
120 3 8 -3.7049685913112214 -8.130067598502565 2.3775159063519147
121 3 8 -4.065751698569047 -7.33478682140654 2.9942017421362737
122 3 8 -4.74700477725531 -8.284457128351292 4.47376566716071
123 3 8 -3.589413600926367 -8.82653547361076 5.530888431588288
124 3 8 -2.337058668346349 -8.310997690705648 5.693200744784992
125 3 8 -1.864959598845864 -8.209328442649038 3.459149310126616
126 3 8 -1.1908146321219355 -9.063657347626837 2.9871099859774595
127 3 8 -2.5245569655398086 -9.98657173820094 2.78358881374704
128 3 8 -2.0500827678437226 -10.611161027540636 4.706835710354568
129 3 8 -3.522417271655798 -10.553048090714865 3.993510507555247
130 3 8 -4.595957878934265 -12.212968377738422 3.8927748774566076
131 3 8 -5.741966409473439 -13.186820670104353 3.5226874373657404
132 3 8 -6.425019837766003 -13.175821883267997 2.7024586690570285
133 3 8 -7.259251606612977 -14.01503188628832 2.0438689005363138
134 3 8 -5.531823967030299 -14.581608617537327 1.605135253406362
135 3 7 -4.311192582952459 -14.438240761448547 1.8906731031906967
136 3 7 -5.06299064383067 -16.042457790554597 1.8465199926472
137 3 7 -4.888353927983759 -16.71020808346924 0.5565159775970369
138 3 7 -5.9427552898622125 -17.82614310704208 -0.47201933131613844
139 3 7 -4.822059323480003 -16.724782292098446 -0.9773034749120699
140 3 7 -3.57671178142767 -16.124788714995077 -1.4187730508659104
141 3 7 -3.0289338368969334 -15.768822204067138 -0.12194240828042655
142 3 7 -4.037285763376177 -14.886605410202018 0.5172655899098486
143 3 7 -3.1518782592902785 -15.037747904805844 1.9530912483869145
144 3 7 -3.340308115619148 -13.815987077822335 2.328007382603404
145 3 7 -4.458454795497438 -14.163583575287834 3.5206009022211826
146 3 7 -3.3429109350450994 -12.832373135827542 3.935847279428286
147 3 7 -3.8887505494651045 -11.992813868917153 5.911344383312096
148 4 8 0.7596642600091967 10.847391553806263 16.560850172670875
149 4 8 0.525549820948552 11.517016660921552 17.314161290679316
150 4 8 -1.069789110929627 11.726986521823228 17.443687476608112
151 4 8 -1.4930101580312374 10.432874142963868 18.783895218966922
152 4 8 -1.4038031900222314 9.664189071151762 17.98004412828181
153 4 8 -1.6061491136154997 9.819389017694622 15.99663756502453
154 4 8 -1.8663621327798072 10.293491272605268 17.339755039055877
155 4 8 -2.606823670528787 10.095189028876701 17.958409379266396
156 4 8 -3.6086885774056947 8.28291701388877 17.168530704829212
157 4 8 -4.307036371132113 6.844086517700035 17.35069338377333
158 4 8 -3.28398478762669 6.780850706528884 16.162432021076878
159 4 8 -2.569559778208398 6.557722444022726 17.35593379959174
160 4 8 -1.9479921623983805 6.256250672766424 18.82126452816304
161 4 8 -0.983934251884512 5.799097802958653 19.438858317956644
162 4 8 -1.7113472212532261 6.3853623348571835 20.315083727778948
163 4 8 -3.0804281372152844 5.786444204782858 21.05842141503055
164 4 8 -4.613409906272058 5.75495877473658 22.412853325888598
165 4 8 -5.4443076756821815 6.703334835870918 21.57583450657907
166 4 8 -6.500305883169144 8.003500636588845 21.58865373489186
167 4 8 -4.7487506082513455 7.810072784415121 22.013536292755575
168 4 8 -5.442957918572166 6.810176736908951 22.617516510449267
169 4 8 -5.055064614992712 6.312690282470667 23.554430912893157
170 4 8 -5.136608165526413 6.126949136477362 24.7920859069536
171 4 8 -5.351588633576679 4.285131364146358 25.092445089944146
172 4 8 -5.5751356870392454 3.867373456501114 24.114704521176552
173 4 8 -3.889232518560736 4.36627712378752 23.835947763882963
174 4 8 -4.480491205266455 3.1699247501258347 24.81677675525109
175 4 8 -4.009232247730395 1.23628466391694 25.146830367588972
176 4 8 -4.241883618662459 -0.28935406898519417 24.54367358345606
177 4 8 -4.929358545258124 -1.4236776260410788 25.448380128228294
178 4 8 -3.682657858478964 -1.4544154014102233 25.8940808414784
179 4 8 -3.5087708000913316 0.420192493307831 26.51023847626539
180 4 8 -5.328757963678912 0.7096520497557285 27.897795967129557
181 4 8 -4.49837268109849 -1.3786008949325277 28.183146755380378
182 4 8 -3.0589621785517305 -0.8755831083488937 27.349957980218083
183 4 8 -2.2778803347866616 0.0791405280538587 27.19965131747575
184 4 7 -0.40213357189121307 -0.3253496458798179 26.65643311741652
185 4 7 1.154655345077413 -0.25029862420076765 26.04710429719466
186 4 7 0.9240420193319039 -1.370981767684609 25.90490806295389
187 4 7 -0.5319443896787789 -1.392386547967449 24.74873454033864
188 4 7 -0.9923141688348971 -2.1209458222812887 25.948780520309107
189 4 7 -1.560723296463521 -3.0949803269024083 25.19920896305251
190 4 7 -1.9935572267728034 -2.623934927101906 24.063468523254876
191 4 7 -1.4872840886624032 -3.201903063604086 22.30061290116601
192 4 7 -2.034981435059635 -4.090272021950401 21.574149470643363
193 4 7 -1.2745298094114155 -5.183974824818506 21.256115026481865
194 4 7 -2.631660641491168 -5.543354262118815 22.699424149511092
195 4 7 -1.579855915470631 -6.245211591175917 22.218991926666508
196 4 7 -1.2202577694356913 -7.299958500921445 23.45714482768834
197 5 8 -0.527875115165204 -4.955023674339482 13.324930933668957
198 5 8 -0.4933570980319633 -5.98975027178481 12.871384279359336
199 5 8 -1.3068991887423962 -4.526809905842357 13.824626872034191
200 5 8 0.5905976560970952 -4.146300279626722 13.641590337330664
201 5 8 1.3433368668355392 -3.23182853688862 14.962858483701233
202 5 8 1.7261492724948273 -4.115712396071147 15.678051530795736
203 5 8 2.7132209812770216 -4.008747422687416 15.91015761722294
204 5 8 4.543747983336485 -3.8161927035419825 16.684218684292585
205 5 8 4.109755954447843 -2.822389806254584 17.240098501965633
206 5 8 2.896862186049792 -1.477858189403935 16.643917256848102
207 5 8 4.338610730012249 -1.7163561639307423 16.50799033661054
208 5 8 4.863119120891494 -2.186312156868515 15.355054489818471
209 5 8 4.184563755213283 -3.000207080544434 14.676563692276787
210 5 8 5.801203813808029 -3.012940313344226 15.452516555493219
211 5 8 5.694716484483144 -2.7070672127487128 14.4140365245109
212 5 8 6.8657183155947745 -2.5125967234174267 14.580862053918938
213 5 8 6.819455899878021 -1.8550033879218153 13.329107507373394
214 5 8 6.690529853532478 -0.17797741719349006 13.411674125998719
215 5 8 6.621643359543812 0.7666916419577144 11.951501272115252
1019 29 10 7.372400032472258 0.24555182177975268 11.022863540416852
217 5 8 6.686715435917952 2.09824931482634 11.643676154475294
218 5 8 6.037415837135932 1.422209782501668 10.387349513058924
219 5 8 7.403506290255564 1.669586265457309 10.260878247613038
220 5 8 7.0774455440357755 1.3198315091118882 8.967182212951334
221 5 8 7.44829935662385 0.9697220876418059 7.7988883281943275
222 5 8 7.741835200599523 0.06123579105406387 8.419424901388727
223 5 8 7.153926849713202 -0.5148070437872432 7.644387424121671
224 5 8 7.185338913484257 0.6098882497291369 6.8090994068844255
225 5 8 7.786118380679034 0.4173142867219887 5.932969614463347
226 5 8 7.727923320636614 0.6846339277279758 4.816899643157637
227 5 8 7.806509486212305 1.9746897538758226 4.735565457700941
228 5 8 8.912948383784316 2.524685270803706 3.9087657133169036
229 5 8 8.61115119000654 1.2050318217176135 4.041796390156537
230 5 8 9.144912693508791 0.7055632255048435 4.859000002226846
231 5 8 8.467952426084805 -0.2688860703335351 3.762217918114126
232 5 8 8.003514575795274 -0.6028067139178943 2.368756069956649
233 5 7 8.85322971041786 -1.1799979814738952 2.3679384394567022
234 5 7 8.77264820462555 -2.2240033821889043 2.0584256729357904
235 5 7 7.824331709409055 -2.959542844573374 1.6443221161824848
236 5 7 8.745770835962695 -4.997762208224785 1.0160157427953005
237 5 7 8.543102549104 -4.408487402815234 2.11946977702076
238 5 7 7.104727007192045 -4.859055491485043 2.0418782629540133
239 5 7 5.939168009662952 -4.205517408214321 1.5924547863174925
240 5 7 5.418035923268166 -2.9326233295531656 1.6255308424892256
241 5 7 5.458457356069682 -1.8302464143767359 2.2773266263779854
242 5 7 5.572044905031326 -3.200559431279774 2.8648975983093754
243 5 7 6.955500552404551 -3.0310126418158103 3.849285651130684
244 5 7 7.8118217003704755 -1.936258547498145 3.3829429471761863
245 5 7 6.334494931796782 -2.265213692284317 3.484934095045372
246 6 8 -1.2675325676303724 2.8123115525623175 4.423521904401921
247 6 8 -1.215725188302643 3.988576796398827 4.893692919362645
248 6 8 -3.0150214759910194 3.452570390245194 4.5747288024042225
249 6 8 -3.3614034348045876 3.7545282098871975 3.258208911678399
250 6 8 -2.427006505465659 4.904141628858351 2.968027814864724
251 6 8 -2.364877831958241 3.9671268264674566 4.019711130134558
252 6 8 -0.9290141436735329 4.550902098567097 3.7222883372904194
253 6 8 0.3271764961330634 4.32367443138602 4.96925958894709
254 6 8 -0.8187723594580084 4.592702482365083 6.062499226094114
255 6 8 -2.242476927957039 3.5935937422293556 6.766380537188941
256 6 8 -2.7124607118315285 4.918487275926689 7.794385780830806
257 6 8 -2.974205726987534 6.39095133795936 7.133992508906188
258 6 8 -2.91135952335264 5.96451105337949 8.017765116877182
259 6 8 -4.239170202205909 5.604964341464048 8.303867669283726
260 6 8 -5.3690318984987275 6.5822582848887485 9.02571150678204
261 6 8 -3.4232930520432454 5.997445392663293 9.308572162266863
262 6 8 -2.9667447473863584 4.74168979804624 8.90167373066302
263 6 8 -2.0000703971722085 4.631832436833581 10.667675624706817
264 6 8 -2.6689793734432112 3.3993480978704587 9.464949619116638
265 6 8 -2.6197041253776643 2.060676556528486 10.034501255119384
266 6 8 -2.580830508231995 1.109850966104245 10.775887288137934
267 6 8 -2.9728341268972858 1.1682069236754 11.998618984975383
268 6 8 -3.672384932441285 0.4734412568222188 11.298582834300282
269 6 8 -2.755623051227841 -0.14699693724909368 10.87095157705047
270 6 8 -2.8474823964020666 -0.8768850787949791 11.724853560670377
271 6 8 -3.2926117850481433 -1.5020745108709956 12.992242183373483
272 6 8 -4.075508548325959 -2.5056995001886317 13.08656871951869
273 6 8 -4.571784592607053 -3.7145003072804412 12.474300940072933
274 6 8 -3.369457668100325 -4.187125436311342 11.096470633417132
275 6 8 -3.4621651152090376 -2.8760516619728462 10.221236692107643
276 6 8 -3.783657378012117 -2.7041638819356875 8.514206218009482
277 6 8 -2.594624559413823 -2.8314064340065306 8.440128122032517
1012 29 10 -2.6365463046295248 -2.7651248004694335 7.03338942918055
279 6 8 -3.844564264695741 -1.4794579226285012 6.7247626252389345
280 6 8 -4.565770820521559 -2.39755094607327 6.590822002376736
281 6 8 -5.29798910170736 -2.4612218832065085 7.950087369319223
282 6 7 -4.629257575663738 -3.5627221472095103 8.023580934363887
283 6 7 -4.438527529691863 -4.20802221481549 7.16918000661724
284 6 7 -5.6270021257803675 -3.5803539722984974 6.151620667244702
285 6 7 -6.238770346096003 -4.186369092447845 7.309103498873622
286 6 7 -7.4972510423772105 -3.8131566703201187 7.347557212438232
287 6 7 -7.508127940779241 -4.7630835163642 6.614171716586525
288 6 7 -6.607902625323642 -5.244614427496537 5.744572287160606
289 6 7 -7.733767664411449 -6.155667229840753 5.325018246821354
290 6 7 -8.816344653540487 -6.606368266537418 6.388061284563635
291 6 7 -8.870855408774503 -5.811172865809593 5.139175051840521
292 6 7 -8.794166231698467 -4.964004329794636 5.7460517778631495
293 6 7 -8.039428678064136 -4.155790320616774 5.321368379610239
294 6 7 -8.419053213885048 -3.366246473387463 4.801839673681812
295 7 8 3.757880559538807 13.65512968278212 6.38047047113149
296 7 8 4.428034922672009 13.396556194242038 7.395142455529549
297 7 8 3.5703087645701266 12.694104621871851 8.791822762723758
298 7 8 2.94479996233712 13.339875128988178 8.14968004468002
299 7 8 2.261158515609815 12.197574373326987 8.044733184418337
300 7 8 1.2130125451191818 13.240839795526659 7.935095947751315
301 7 8 -0.0686319877857139 13.750511261456696 9.216689580311806
302 7 8 1.2989508435490376 13.677471896695629 10.338116774000211
303 7 8 0.997902013650042 14.179626783878868 11.517543906825477
304 7 8 0.055024644204968894 13.6581344995162 10.244871340864114
305 7 8 1.1024131594865227 13.154049239798612 11.456407848199447
306 7 8 2.3688258983859964 11.522102729508118 11.882957888573618
307 7 8 1.6690346875866813 10.670224549151845 11.940801548067233
308 7 8 2.863746777281113 9.67478597530681 11.454192739198616
309 7 8 4.135146103244534 9.937059215386297 11.006875032541162
310 7 8 4.114651861774173 9.939124661344483 9.392847350817199
311 7 8 4.553304415023978 10.151160132085682 7.799660508423572
1011 29 10 4.385187186762608 8.60530678963875 8.109476589451324
313 7 8 4.275211078450391 7.739538916926008 9.242966601018386
314 7 8 3.5954288114206077 7.163721430300161 7.806812671034145
315 7 8 3.3156623844840776 6.803151809033538 9.248477059468623
316 7 8 4.250710047879052 6.157881537878843 9.552703206021663
317 7 8 3.7759004360251462 5.654373482759515 8.288922746261887
318 7 8 1.8418963108403146 4.8294287935750155 7.291678049375856
319 7 8 2.461095782857967 3.6296871242669497 6.276186611071157
320 7 8 3.0901051463880296 1.891078276060218 6.124805954319468
321 7 8 2.016871967252146 1.4110813075745992 6.70202082851551
322 7 8 0.4235720176432732 0.778209435757576 6.797901024444882
323 7 8 -0.37297385299177965 2.038047636649709 5.8917110426888675
324 7 8 0.7551307590633224 2.4273528924694094 5.8234445377849475
325 7 8 1.1379077553733183 2.645146002629134 7.626551911892769
326 7 8 1.3880600622751613 3.699374070038031 8.540354496264518
327 7 8 0.14680515113416956 4.916454429431007 8.12718365396509
328 7 8 -0.15787333319183666 4.1786204136844205 8.918729527269583
329 7 8 -0.7623883731645611 2.7132589228654873 8.825687625601452
330 7 8 0.855567722726398 2.23236307025979 9.746792205595796
331 7 7 -0.33742539761368795 2.8883163863629004 10.891735713075283
332 7 7 0.5214920161102741 1.0271829515858195 9.97525039632991
333 7 7 -0.06762311758180661 1.1853358843288346 11.264001777727634
334 7 7 -0.4124202562804336 2.670479993678808 12.182720450743572
335 7 7 1.0977491764819163 2.181844930518579 12.544803108081762
336 7 7 1.5938440339841708 3.2126242314070566 13.975407442599721
337 7 7 0.6851653937103046 3.3442313804313524 12.794728066699328
338 7 7 0.8304343053240218 4.122469956028231 11.84494873606275
339 7 7 1.1794667813694693 5.303464300505942 12.856899454849298
340 7 7 0.6388195841959193 4.878786267905565 14.586918209473534
341 7 7 2.0632799717589565 5.571759084883771 16.092103506887696
342 7 7 3.0272834544471676 6.3099751073209145 16.09442899856563
343 7 7 2.7205925434505396 4.903402837244007 17.23704573492501
344 8 8 6.345820542878138 19.913440075475474 -9.989514242129248
345 8 8 6.510552780821548 18.45313587607698 -8.579280266481259
346 8 8 6.75615418027682 17.347274467481572 -8.362893988884748
347 8 8 5.985816601656422 16.619816219105253 -7.994795546710669
348 8 8 7.494135242133481 18.15907477980772 -8.406334425999416
349 8 8 7.809238516673974 17.333001238279987 -8.917875908281712
350 8 8 8.208113134605247 16.330510022339293 -9.703412801812785
351 8 8 7.2661156377870215 15.970644920583817 -9.406901359159665
352 8 8 7.033258351941956 16.978079823630836 -10.4742936017518
353 8 8 6.5276164248117565 15.769916110756355 -10.487587702255883
354 8 8 6.886489358020395 15.18527704638004 -11.877391763407969
355 8 8 7.061325838982516 13.810686863593117 -11.292618707249545
356 8 8 7.701290236645691 13.454669497173361 -12.499943174091563
357 8 8 8.45469307877562 12.449016917059492 -11.702254518767132
358 8 8 8.550959804587599 12.122334544663273 -10.529082394579603
359 8 8 9.47150086928452 11.518885354841608 -10.807660210360316
360 8 8 9.755689018650052 10.381950576544288 -11.130366082756284
361 8 8 10.557407927235683 9.144786480230184 -11.329044499194032
362 8 8 11.879109604876652 9.18797232868741 -12.33011922583361
363 8 8 10.855848899778843 8.928528102479332 -12.676472235392156
364 8 8 11.397755873853939 7.711069945188179 -11.895300722400021
365 8 8 10.534494866138155 6.885583339759634 -12.672468288836654
366 8 8 10.035612331613642 5.00662947168847 -12.812702305653007
367 8 8 9.602957892928437 4.305842238034937 -13.707509678279784
368 8 8 7.373086207516654 3.8969493084676228 -14.175198321265217
369 8 8 7.048765287877611 5.614070001577299 -14.259282839366183
370 8 8 8.845901426717136 4.478545190118637 -15.400310869559657
371 8 8 9.863582340865813 4.643453749824313 -16.886743405994416
372 8 8 10.28116285432578 4.456121205414548 -16.032013842232534
373 8 8 11.536988455475546 4.128751520145976 -15.950982082373137
374 8 8 12.825754802976801 3.6987713863903404 -16.467397990704075
375 8 8 12.587179221769095 1.9488128313225235 -16.533344475760615
376 8 8 12.333922173939719 2.387574134284889 -17.785654168268636
377 8 8 12.187141626082456 3.7579134987636627 -18.40711680695062
378 8 8 12.138000864918462 4.149673392887672 -19.89806633170693
379 8 8 11.561048601662863 2.492195911286373 -19.632842858187324
380 8 7 13.158979679145265 0.8841277665318162 -18.98455382492829
381 8 7 14.092409783134793 -0.6843571380388651 -17.86575016089306
382 8 7 12.872683037386585 -0.09662573344797006 -18.609943467237176
383 8 7 13.478488859617013 -0.42799587485180113 -20.517793524163025
384 8 7 14.636528373656517 -1.1680770904524904 -20.930919028134376
385 8 7 14.362775847635778 -1.531736200483787 -22.090747936897845
386 8 7 14.970402421796514 -0.37395969542390184 -22.772072327684022
387 8 7 16.349356726242682 1.1922064870480142 -22.390811335387408
388 8 7 15.699592421324267 0.27689018431177015 -21.582846522431183
389 8 7 15.968795058584318 -0.8583460150647282 -21.25075658244023
390 8 7 17.182629894486002 -0.8945686635708613 -21.622115965009634
391 8 7 16.892936158260152 0.5548889559588651 -20.330356140174203
392 8 7 15.500442934643935 1.27522933347394 -20.593572964920103
393 9 8 -4.650711394683771 -5.196223986810197 -14.901137523885074
394 9 8 -6.350300729209988 -5.382225390614566 -14.5352679524103
395 9 8 -5.943731313573357 -4.521113150817015 -14.097819078553842
396 9 8 -6.241748262302664 -3.867934995679086 -15.037589609195388
397 9 8 -6.496113909340046 -2.8730944895832784 -13.803033858449405
398 9 8 -7.685769354590028 -3.102844240175788 -13.916861838268499
399 9 8 -8.115066960499167 -2.411513494548675 -13.12444593748093
400 9 8 -6.980112933737098 -2.230047566467574 -13.03705307021422
401 9 8 -6.0241930211297365 -0.9464742424249897 -12.601817541608943
402 9 8 -6.343248202250005 0.2288737870120477 -13.612479113673233
403 9 8 -5.1205125088537455 -0.3191963000610075 -12.698259302410044
404 9 8 -5.1246737133885425 -0.5335313523960633 -11.517827876030543
405 9 8 -5.761652249183049 0.588778498286715 -12.515046081713054
406 9 8 -6.381119002194532 0.24135475303443518 -11.096961157668542
407 9 8 -7.046425608735233 1.9884752912792465 -10.327757754605537
408 9 8 -7.963614794639459 1.9874666519890305 -9.338528631871059
1010 29 10 -6.757501709516931 1.5960218080177997 -8.1434819750614
1014 29 10 -6.391230019162127 0.2273325592951792 -8.481977309527643
1016 29 10 -4.392745287050726 1.0315912230257294 -8.889838848141737
412 9 8 -4.211769739073218 -0.4976408049336567 -8.0208886578726
413 9 8 -4.127304177588321 -1.6416531789773068 -8.170584013735466
414 9 8 -4.678207943177769 -1.0186492481957288 -7.175819396831686
415 9 8 -5.967258225831406 -1.2438455798361807 -7.561002089773044
416 9 8 -6.994006624961621 -0.41588029080432337 -7.36117011648833
417 9 8 -6.364675700163702 -0.6614529545493044 -6.597454247355788
418 9 8 -7.379896838538028 0.18642089240330253 -6.098823051764902
419 9 8 -8.390263721535096 -0.7439037108282183 -6.314781145727966
420 9 8 -9.707372779926077 -0.8184093998437842 -5.528695691341732
421 9 8 -11.217216849471043 -0.8793925372473309 -5.879981192753363
422 9 8 -12.34071828008415 -1.9953422061450055 -5.581702692047804
423 9 8 -11.376888223981119 -3.3523777152806336 -5.977018034195356
424 9 8 -10.556321039575758 -4.7780567138133545 -6.959254868620334
425 9 8 -11.491658757119964 -4.939873401894907 -7.3711826173405415
426 9 8 -11.91611852612731 -5.431612326618528 -6.608092971746186
427 9 8 -12.29229261602386 -5.82347737092011 -7.93938443933896
428 9 8 -13.022242325032927 -5.969152813696349 -7.2140104334806425
429 9 7 -12.789470349087045 -6.266214399429511 -8.745361534616709
430 9 7 -13.174619531342694 -5.065920429078464 -7.792806296468229
431 9 7 -13.01590449621949 -5.54633328911806 -6.014512671925097
432 9 7 -14.77352946328785 -5.245719231715262 -5.063828148413479
433 9 7 -14.751619905915085 -6.605382732851368 -5.511938172754326
434 9 7 -15.211304631119681 -7.755418893487305 -5.807702918569685
435 9 7 -13.915862971199353 -8.22504126553726 -5.752423651652954
436 9 7 -15.056794211119355 -7.122117379878796 -6.970113407882805
437 9 7 -14.254209277677448 -6.853013057626118 -8.07392636086699
438 9 7 -16.400316385971937 -7.460131437681259 -7.916719497518398
439 9 7 -17.618094020788803 -7.633645099265386 -7.1932948296603625
440 9 7 -16.210776884902415 -7.526944671914165 -6.585022046203961
441 9 7 -16.585999343410602 -7.134404470967761 -5.226885029281972
442 10 8 0.9856676773672783 15.335941510575422 -1.2183211172133754
443 10 8 -0.5996519719209139 15.567911966846482 -0.8551715416275267
444 10 8 -0.8271438921252469 17.171115605373007 -1.5273334100323583
445 10 8 -1.77036479629302 16.41418881446009 -1.4719319886505635
446 10 8 -2.8201252212072165 15.814869342522533 -0.8439099046256028
447 10 8 -3.4379198136567806 15.410393859337022 -1.753939781650715
448 10 8 -3.301537646919187 15.055857947424101 -0.43072508090607803
449 10 8 -2.2970327353266513 14.11301775347855 -1.0055040473675207
450 10 8 -2.4323577007235513 12.920270328810801 -1.74273052084949
451 10 8 -2.2764126643114038 11.789693989343968 -2.181561997766998
452 10 8 -2.6735711518659384 11.179391538653453 -3.5850656249248822
453 10 8 -2.279922969342385 10.742761761284564 -2.3569700521972625
454 10 8 -3.6470474822411565 10.82472159034548 -1.8704064550120605
455 10 8 -3.3217879565887465 9.807443848162915 -1.1987367075327964
1015 29 10 -2.9687186364163134 9.324539991371266 -0.30127249259214284
457 10 8 -2.2852979095176775 9.371217602578556 -1.5663574312431177
458 10 8 -0.9001520928003032 9.547793294019753 -2.2568519225443806