# Generated from readdy-to-lammps

1005 atoms
624 bonds

10 atom types
1 bond types

-30.0 30.0 xlo xhi
-30.0 30.0 ylo yhi
-30.0 30.0 zlo zhi

Masses

1 1.0
2 1.0
3 1.0
4 1.0
5 1.0
6 1.0
7 1.0
8 1.0
9 1.0
10 1.0

Atoms

1 1 8 -14.107282641148885 -8.119552300891584 -10.156145266947233
2 1 8 -13.979394657811794 -9.764934571902861 -10.78881484423199
3 1 8 -14.053518369637201 -9.42441920852793 -12.294225745961166
4 1 8 -12.636725706340624 -8.209781700754695 -13.262498745291518
5 1 8 -11.87047780181503 -7.540206472881298 -13.420796747340548
6 1 8 -10.669722969592375 -8.0347199789354 -14.67294178745266
7 1 8 -12.635122969279337 -6.746290349558962 -14.056427988235294
8 1 8 -13.64819312801628 -6.751546030412625 -13.03278789114403
9 1 8 -11.898814291545502 -6.051222110097434 -11.696986533194549
10 1 8 -10.96080419439574 -6.120713132787211 -12.663832676875176
11 1 8 -11.183992901927654 -4.783018302109915 -12.772654109280618
12 1 8 -10.151986022768883 -4.8857969276806825 -11.697930443528174
13 1 8 -8.69730294996389 -5.9822847488813835 -12.517846556239299
14 1 8 -7.194488027647434 -5.7088242387339445 -11.874337892138314
15 1 8 -6.570253123615911 -6.481202091175555 -11.756147944846724
16 1 8 -6.885065039589136 -6.822183273954447 -10.52770747103304
17 1 8 -6.4868092917249704 -7.8734034570184495 -11.057932320543937
18 1 8 -7.284723809854686 -8.46486307074576 -10.603489325494703
19 1 8 -8.625402541197584 -8.622182865524552 -10.434954089422082
20 1 8 -8.584047112039839 -9.342564618745504 -9.52923671754005
21 1 8 -8.615631556576583 -8.948711193365053 -8.554163762495971
22 1 8 -8.144612807297309 -7.525165480220846 -8.504072334160902
23 1 8 -7.633813833930772 -9.285340898458733 -8.062418798599689
24 1 8 -7.805432910521215 -10.570378617466472 -8.418118173642306
25 1 8 -6.719992934973612 -10.119601655471667 -7.8335798896343345
26 1 8 -5.437189126501797 -8.882416060349064 -8.454152279719935
27 1 8 -4.668966047923697 -7.957124607565547 -8.21363358919853
28 1 8 -5.532431075920505 -7.343591436287531 -7.496414826047875
29 1 8 -5.684047817270679 -7.142186380718811 -8.796488645245148
30 1 8 -6.039702507367235 -8.698865059736463 -10.371658244341331
31 1 8 -5.244488106583187 -8.128938969001352 -11.158511336278906
32 1 8 -4.140543695086457 -9.557205191028007 -11.258385763689132
33 1 8 -3.2352950104404536 -8.494326228010124 -10.661370709068516
34 1 8 -2.1577898268438376 -7.556216512584678 -9.11037526092333
35 1 8 -0.8182540673211668 -7.992548673688208 -10.297055677099245
36 1 8 -1.5125460734962302 -8.866951196076702 -11.124727112244553
37 1 7 -1.698579720039932 -8.511326814302244 -13.081376508052797
38 1 7 -1.00512563691119 -9.083736408839176 -12.472504080717876
39 1 7 -2.3819444461661865 -8.591004916023541 -12.26032215136655
40 1 7 -3.3422803367323164 -7.438640067687888 -11.598502815913232
41 1 7 -3.912485662366448 -7.875327086230322 -12.64869165613326
42 1 7 -5.4048475474203235 -7.624683375342423 -12.906948823292664
43 1 7 -4.924535868265915 -6.5695803079996615 -13.291926355048874
44 1 7 -4.756509252625974 -5.135482525413835 -12.663787102076425
45 1 7 -3.262773049972628 -5.184230269401843 -12.970854359050909
46 1 7 -2.14303076359216 -5.605193004029434 -12.657829537390814
47 1 7 -2.365754458945114 -3.8417522135389612 -12.419136675539365
48 1 7 -1.6989555535834449 -4.605885522074368 -11.65325718142206
49 1 7 -0.6434619704722938 -4.749719660231853 -11.951982934214502
1050 76 4 -0.5291303681441706 -2.9036210157582802 0.6425781792660751
51 76 5 0.028548311255405693 -3.118256909294181 -6.292534204924042
1046 76 5 2.799284409316375 -4.943426231609371 -2.474736855616673
53 76 5 -0.27715213822137097 -4.797163170681351 -0.630660559700752
1042 76 5 2.6824156574275904 -4.685773979871835 -0.546367289800187
55 56 8 4.775540774752064 -6.166503531283959 -0.38647702702658754
56 56 8 3.961171632799077 -5.285843258268015 -0.5277008709186094
57 56 8 2.907209659588038 -6.142266286442615 -0.6754992354895727
58 56 8 2.8286871245966467 -7.378273432544366 0.7909054720521128
59 56 8 2.799964331054624 -5.9856971422293626 1.3331133517836722
60 56 8 1.6308429490878487 -5.598149222782595 2.2345073470770274
61 56 8 1.158680952912724 -5.688602787187174 3.6493166064625893
62 56 8 0.810362214340379 -5.545032805360611 5.0045380039420655
1007 76 4 -1.2145760666591543 -8.754281546282792 6.648379414863042
64 27 8 -0.014025756181916692 -5.5909412438654815 0.510269178461163
65 27 8 -1.582419215259898 -4.750253374185635 1.0424568351927042
66 27 8 -2.597184783470897 -4.556761925993171 1.7451425740329796
67 27 8 -1.594164698618866 -4.670592414083811 2.9165580685994
68 27 8 -1.259194146373612 -5.852678949485994 3.8109306891017107
69 27 8 -1.2223492456809764 -4.761369966266094 3.9455904891368814
70 27 8 0.07909897922495601 -4.458408708249971 4.965224674247718
1036 76 4 -0.9553784860468014 -3.2020165519217163 5.3432224813101
72 76 5 -1.0159894609502809 -0.741601563137931 2.8278492472148433
1009 76 4 -2.5091580637046222 -1.8573751802834457 7.423892348215473
74 58 8 -2.8872560894773907 0.753271444564837 1.4374073820317435
75 58 8 -2.8353378330176886 -0.1774362084466083 0.7297290749769055
76 58 8 -2.3543880512764095 -0.8452399943558654 1.6751881771054062
77 58 8 -3.924177581287349 -0.13434906796171078 1.5179724879151821
1074 76 8 -4.853897938089071 -1.4227713800802633 1.8582890429924446
1037 76 4 -4.268594872265801 3.210014943470325 6.513440043773854
1017 76 5 -6.262487421033366 1.1813284535548392 4.987783214966795
81 61 8 -3.6429010252305427 4.654679891168738 4.081999994709059
82 61 8 -2.907184770573979 4.542935693040443 3.2113632127917042
83 61 8 -1.9336687473024905 3.5609370793563597 1.5374658568116975
84 61 8 -0.4143546865107625 3.0036419373484016 2.1920863779958832
85 61 8 1.2496082657359633 2.829527505544376 3.1303878995053065
1079 76 5 1.3497106278397522 3.3220549789668965 1.7622901293522126
87 68 7 1.5735320117279161 1.7788376432939474 3.2324276075028604
88 68 7 0.974395741386937 0.210174554478269 3.183095984285904
89 68 7 1.7349514290459804 0.19756459275222688 2.089279754478988
90 68 7 2.726413609054688 0.8741798585278074 1.4104516199821804
91 68 7 1.3011842653407117 -0.539047077401498 0.9395983925331909
92 68 7 2.112256586063764 -2.3535968076511598 1.27095914311482
1044 76 4 1.8585191690269367 -0.771039852528703 -2.34580739905853
94 60 7 -0.0579323031021335 0.9147624802274307 0.006185638564742437
95 60 7 -0.5831124875803168 0.1479210445244434 -1.2019536119877163
96 60 7 -1.435027680164593 -0.8936512146592347 -1.2070529219209902
97 60 7 -2.285039490304419 -0.5753226709524663 -0.37816624888453176
98 60 7 -2.0539760208235975 -2.693726228923338 -0.5137621559515947
99 3 8 1.709444672341092 -7.888173652335091 1.1757399573119536
100 3 8 2.0607531358197897 -9.29103418576162 1.9168196635275376
101 3 8 0.2751224625118527 -8.315793771456137 1.1049364224555491
102 3 8 -1.3495373866986973 -9.09920414460358 1.1674479475336081
103 3 8 -2.02132437589783 -7.724046517195977 2.331129397160499
104 3 8 -1.2811494947078046 -6.336844111808012 1.1931644515760569
105 3 8 -1.3239290704155184 -7.622994835350352 -0.09917253639026793
106 3 8 -2.4290727446680402 -8.448736430449072 -0.7729188107358143
107 3 8 -2.9316622056454866 -7.763272529135984 -0.10208456862087822
108 3 8 -3.8805211650857223 -7.742814309553293 -1.096950565158323
109 3 8 -5.0291870532266225 -9.053066233048174 -1.562991241557555
110 3 8 -5.746629752660811 -8.288317929100737 -2.1566609381406883
111 3 8 -5.08637370109752 -8.011262210325164 -1.319226750739303
112 3 8 -5.029212672442948 -8.63891092015133 -0.18834662262774252
113 3 8 -5.720309915609286 -11.022930016915037 -0.32523385404461524
1024 76 5 -3.933648624749784 -10.798299225680331 -1.2183459111020756
115 45 8 -5.726964864293472 -10.475213668446282 1.8216572910064903
116 45 8 -6.673084896101214 -10.053028662762063 2.3196446736117537
117 45 8 -5.119262709658197 -9.22860501281305 2.8807815074945125
118 45 8 -4.6760516652789 -9.93265537752365 1.9781330845934961
119 45 8 -4.390508084993265 -8.835718786578715 2.26933069198919
120 45 8 -5.939894892298394 -8.16646891514828 2.3952816573560964
121 45 8 -5.527535313028453 -7.611951801639436 3.8384980164202536
122 45 8 -4.578846652331855 -8.555289390344809 4.267207574447449
123 45 8 -4.7614490115294705 -9.951899200438667 3.6793591922833824
124 45 8 -3.483960445865434 -9.856372113154812 3.6633484353529666
125 45 8 -2.9034272475774077 -8.721614171753819 3.4852735555840755
126 45 8 -2.3544650180314974 -9.937450961849501 3.3114774103982563
127 45 8 -3.3601138256151337 -10.555407362590282 2.2204483035020655
128 45 8 -4.18069061670972 -11.767292761293257 3.1665999033287595
129 45 8 -5.127599821616483 -12.4227485941789 2.4319204794334013
130 45 8 -6.530796294084975 -12.782522036292354 2.0061717900567144
131 45 8 -7.605607662132341 -12.922182440206067 2.2499999549239122
132 45 8 -8.273095891884823 -12.171286952185499 1.1717706586020582
133 45 8 -9.29745873027369 -13.449752253262265 2.3411376246874034
134 45 8 -9.035351581660267 -12.176401409388827 1.8358488427412991
1025 76 5 -7.0238079993792795 -17.083201221616594 -6.225136041271238
136 42 7 -5.514409194622401 -15.477755969564866 -2.3026332527777984
137 42 7 -5.873529015072457 -16.841766956395922 -1.5366800876133042
138 42 7 -5.121140649054994 -16.407201507663626 -0.2290382124406325
139 42 7 -3.7767734324031674 -16.47715935153916 -0.5365406216276917
140 42 7 -2.173133419633525 -15.654118392246986 -0.49755188043905196
141 42 7 -2.3449032723120067 -16.063179763472245 1.388718590048482
142 42 7 -1.5447037094993634 -14.90450457869172 2.637535132143515
143 42 7 -2.3887268264823804 -14.13525037913841 1.8871986862973538
144 42 7 -4.399969362523015 -13.801634135423035 2.9795934385520004
145 42 7 -5.26233089473285 -13.189234447646612 1.7560530112590897
146 42 7 -5.053303179675662 -12.620379666062988 0.8873076302279339
147 42 7 -5.510400420328773 -11.617776131680214 1.590528336786735
148 4 8 0.16923091206374422 11.87460952076427 18.528613474542304
149 4 8 0.16129891434733393 9.77915489901334 18.60764655975437
150 4 8 0.5902032657407057 10.944844982300102 18.682980426622994
151 4 8 0.6360298965551561 10.352157615900081 20.376773897789583
152 4 8 0.6729991454160709 8.74758324944698 20.144966755632566
153 4 8 -0.8877489272746291 8.93114840341361 20.996389090248613
154 4 8 -2.0590278501485337 8.837512426898314 19.67982699786415
155 4 8 -3.0991160192957827 9.237095599145622 19.222847981659722
156 4 8 -2.575839612759013 8.824227017361777 18.006647366422364
157 4 8 -3.786956151222188 8.307897508956586 17.474605805004316
158 4 8 -1.8712058117781454 8.037935438456369 18.002787507047064
159 4 8 -2.8711128001610517 7.736331362737468 18.576136334774898
160 4 8 -3.250951495116106 8.064573897695029 19.5524970776512
161 4 8 -3.690288116521373 7.159549594420101 18.99980893101139
162 4 8 -2.368685002194287 5.511720567867334 19.880263883750363
163 4 8 -2.7044591325275746 4.520242536208491 20.814298773423264
164 4 8 -3.876251866502561 3.8154261402127316 21.717178017241082
165 4 8 -4.904329850201281 3.017773514361559 22.085035229248287
1031 76 4 -5.114792109018354 7.502139863760204 19.119528845046283
167 67 8 -3.5986818759806405 7.05188887868113 22.457939136777636
1043 76 5 -4.0224857739239175 5.954292991880039 23.289356425561895
169 69 8 -4.407899959095724 5.143574206099594 24.119846770620544
170 69 8 -5.033590552904478 5.229498074435206 23.09383159382787
171 69 8 -5.163532873133823 4.494823069302603 23.96278359037101
172 69 8 -4.984549406068387 3.1081670916513704 23.933711113243504
173 69 8 -4.2377532930795025 2.5090123503494683 24.937432699210557
174 69 8 -4.00151386563713 1.061765304303643 24.807202676841236
175 69 8 -2.733263765516749 0.5662654147809546 24.665474131100652
176 69 8 -2.506248647161469 0.16693589081670612 25.96276356685609
177 69 8 -3.6028597472723627 -0.18797982046024345 25.743160159521246
178 69 8 -4.33338882737357 0.18935442541544958 26.30227397949921
179 69 8 -3.7635576470674215 -1.1277894340820658 27.26896947457769
180 69 8 -2.5409155165862245 -0.5144632860856104 27.464244658143844
181 69 8 -1.9413836418354522 -0.9034545033072262 28.813317769898934
182 69 8 -2.0068604612013377 -2.4798868142921857 28.533196780654226
183 69 8 0.11158412853460416 -1.7050046959491911 29.779055619480438
184 69 7 1.1616818279664514 -1.02891237936943 28.771913483387394
1028 76 9 2.065370784454667 -1.05264816992748 27.66545927489732
1023 76 9 2.4973960596164777 -0.26712147971628436 26.50158431366018
187 69 7 1.9770495360791425 -2.0211845123044347 25.823685975732335
188 69 7 0.2666524523937484 -1.5633099581647498 25.040119487301098
189 69 7 -0.8312895900518487 -2.303782800168971 24.997673151117294
190 69 7 -2.119634393592533 -3.057469695130287 23.787567970718452
191 69 7 -2.507268622839557 -3.3459686131510917 24.922618546781862
192 69 7 -2.4722533168018144 -4.688834348212903 24.261971855047992
193 69 7 -2.019419643489644 -5.075444319035896 24.86359912567181
194 69 7 -1.8113456078099106 -6.562655613312921 24.545391525140833
195 69 7 -2.2978937966625077 -7.129701348497298 22.763841860431132
196 69 7 -1.4330747532227512 -7.557228212126943 21.89979666191865
197 5 8 2.9024137054800527 -2.748160602676823 12.716044557824528
198 5 8 2.3566532442163735 -2.056061501647006 11.600322714510613
199 5 8 2.462043335056036 -3.703699637235612 12.143857746351548
200 5 8 2.901099579894706 -4.270482404766805 13.751713753221843
201 5 8 2.177497582652695 -2.8799605499469565 14.295059604197776
202 5 8 1.7271698417095982 -3.807144430672674 14.873875724880795
203 5 8 0.26449273553048325 -4.515959034226448 15.56201745745149
204 5 8 1.777687262778095 -3.3421488971030286 16.554471177530548
205 5 8 2.582705737625885 -3.8069345154996768 17.32696170613388
206 5 8 3.7441496338164812 -3.2755694206742163 18.762877442550142
207 5 8 5.065981460816345 -2.757087747528465 18.02403229164437
1056 76 8 3.473273896133222 -5.060425014412461 18.12837721831375
209 73 8 4.127907759637918 -3.043123351341209 15.369923421112983
210 73 8 5.450974783632052 -3.105942920730904 14.665496991429908
211 73 8 5.954876471113431 -3.549495885299007 15.534161309202334
212 73 8 5.531360060881755 -3.8627430101595546 14.035872506567117
213 73 8 6.21832104041241 -3.158192049368079 12.933238164106607
214 73 8 5.7586052650023865 -1.7987057881599788 12.894248946268
1080 76 10 7.387717301090149 -2.068371392448949 13.473770075555477
1019 76 4 5.681202294547822 0.6352657053449138 12.115755378562943
217 30 8 5.218227965673391 1.6096326959188962 9.1444541486494
218 30 8 6.09073503556085 0.6756005429268875 7.573872301120742
219 30 8 7.743558844600921 0.04579145014855195 8.779832428353151
220 30 8 8.729374269188792 0.2242592143720292 10.025034682815976
221 30 8 7.518880021194761 -0.3010191545595104 10.073919348320983
222 30 8 8.266129327968233 -1.0323019895052419 8.906840354712331
223 30 8 8.494157666535711 -1.1555240599082324 7.467116032608685
224 30 8 7.81981303342654 0.74836657383574 7.99293260317186
225 30 8 7.286062033896125 1.4171010706566032 7.06381249095879
226 30 8 6.812053687943136 0.02383762444800694 6.185874206793392
227 30 8 6.238871061041419 0.6248053152502259 4.075394526701604
228 30 8 7.569439502958591 1.7196643058138432 3.6206490988188174
229 30 8 6.788133607623856 1.4406358814622515 4.4559440572645705
1054 76 10 7.88649072751934 1.096628362475982 4.863207659215942
1076 76 10 9.566197003208664 1.302201759850664 4.955533820095324
232 30 8 10.020683013446593 -0.7288422985726675 6.1110767255405225
233 30 7 11.377731515251215 -0.9164598645212312 5.606538567988958
234 30 7 9.779593454023248 -1.1768131203109642 4.923392116816796
235 30 7 10.239393893405708 -2.9061674024708672 3.6237284876659337
236 30 7 10.60326842918981 -2.556157753592828 1.7339978590342584
237 30 7 9.511051234932802 -3.793989081770009 2.532975128516805
238 30 7 8.757045646182654 -4.578173829271677 2.6771187390957967
239 30 7 7.585723681710815 -4.153789195770772 1.8228121283002767
240 30 7 6.390738241093025 -3.682041322194711 1.4066928556765532
241 30 7 6.880015889640371 -3.988073136551912 3.202174906518957
242 30 7 7.587369526279535 -2.9079675748887595 2.3399126254171754
243 30 7 8.769211605087026 -2.060485463356475 1.9935935773189228
244 30 7 8.345178246023881 -0.8460202105169661 2.932878812499027
245 30 7 9.507168197508644 -1.8619163080920997 3.467476196302889
246 76 5 0.8064613607515234 3.662908784072806 4.574162928323164
1052 76 5 -0.3955830414037113 1.2737566569117782 5.856562324738848
248 32 8 -5.256442503619777 1.9699073674971197 3.734986812156256
249 32 8 -3.6238083245176482 2.1515710073579806 4.986769945622019
250 32 8 -3.0620475999381784 2.1712403203752952 3.3832447429818107
251 32 8 -2.278732966904663 2.9829062672924063 3.479466635958475
252 32 8 -1.1671143303493319 3.1144071618306133 3.6841707288514627
253 32 8 -1.554914428567264 3.232828839155995 5.417630828644145
254 32 8 -2.4059987355839905 4.267800864305749 6.886221242663592
1071 76 10 -3.636684577899793 4.534567892785146 6.110969388213406
256 32 8 -4.902048669893897 4.512860181361515 6.170882670691674
257 32 8 -4.16331775763843 4.698579285437979 7.582479784010666
258 32 8 -3.555698882408035 5.99494244579614 8.906579249414479
259 32 8 -5.188196918205296 5.246703921156697 9.086818206982421
260 32 8 -5.227010749194705 5.317708167758747 10.877619583559758
261 32 8 -4.3312838172793136 4.637249891361688 10.42757627379585
262 32 8 -2.6783741691525855 4.1163020896876965 9.822171357751893
1069 76 10 -3.756156160029603 4.156496600824772 9.193386192531324
264 32 8 -4.805037950839489 3.003582385869673 10.608981544375423
265 32 8 -3.1659253310630717 3.862294115135317 11.519002854152545
266 32 8 -2.991696019686688 2.9697954127044772 10.66982531820663
267 32 8 -2.5549413832681847 1.9568523812799115 11.165425820082607
268 32 8 -1.0138491515564931 1.7396418311064241 11.959906692852813
1034 76 4 -6.938563299162084 -1.0042689590233682 10.316203465450315
270 48 8 -3.8031901591140507 -1.5359004126363829 13.323033367405552
271 48 8 -4.601079356259187 -2.3236341175223387 13.486768230581067
272 48 8 -3.996953067699571 -2.0753185194752493 15.078677101011598
273 48 8 -3.8313354564390547 -3.237335011783601 14.288121791607985
274 48 8 -5.040520812454439 -3.551973217632207 13.605672727368509
275 48 8 -4.901655590818144 -4.021700524576556 12.47663406919117
276 48 8 -3.77626399276931 -5.018878527425761 12.0940717423441
1047 76 5 -4.068214582725429 -2.5586875805516023 8.775494996793396
1012 76 4 -2.9986215153405014 -2.5080636276151074 5.36237735813693
1026 76 4 -6.893831030460724 -3.828415957746987 10.444783222438945
280 52 8 -7.377352031104776 -1.29269131280477 7.697210843091657
281 52 8 -6.384856847668761 -2.217774573982686 8.04502724139984
1075 76 9 -5.139940470641266 -0.5213805152730663 9.666800416364838
1078 76 9 -5.080410055982331 -2.105382891680077 8.033499082576553
284 71 7 -4.879268755866809 -2.934122038945681 7.32986671859233
285 71 7 -5.343310636124027 -4.175166380401117 5.736426187165584
286 71 7 -5.636728542180219 -3.101202567436329 5.943257801915076
287 71 7 -6.7438377744014275 -2.9057854790803437 6.678797843374178
288 71 7 -7.450825413182277 -4.310746812852188 5.972280331213155
289 71 7 -7.303738603572364 -4.936744428037287 5.086802003495832
290 71 7 -9.058986280633253 -5.595020308058946 5.36908887263188
291 71 7 -10.101468498152483 -5.06210386489092 5.505126274405497
292 71 7 -10.992761327550406 -4.159594167872201 5.225887787296658
293 71 7 -10.846764005634975 -2.6780243469580465 4.744411980396521
294 71 7 -11.285198269420242 -1.361453033483247 4.861083975253371
295 7 8 1.9616068371141442 14.513695740840854 6.587342409389819
296 7 8 3.37164622526935 15.172033702102205 6.465011197062021
297 7 8 1.7781990852753287 13.691301104401084 7.208636920009877
298 7 8 0.6537042460089958 14.639469006092478 8.029273083900742
299 7 8 -0.40825320927975245 14.459761908120388 7.929978152390514
300 7 8 -0.5684432144624569 13.159804206587504 7.169559990743168
301 7 8 0.0013410379128171777 14.65212749691974 9.008031314208377
302 7 8 0.3144616850501875 13.40329463910511 10.646002110712738
303 7 8 -0.4573198303177416 12.416947710341152 10.558626178563356
304 7 8 1.2266453487187972 12.27520300775213 10.402566728306946
305 7 8 0.8078248418101546 12.889759240260847 9.290045078729378
306 7 8 1.274700334691836 11.376922617702343 8.98585776604119
307 7 8 1.5665799202198838 10.91017060030904 10.510767776787405
308 7 8 2.269683647029358 11.955971390354149 9.875492612091929
309 7 8 3.6593025567497497 11.970985207509823 10.037818680144925
310 7 8 3.0107202770057286 12.628721992487355 10.894221343754925
311 7 8 2.908358921597127 11.352218739841772 11.116374423136524
1011 76 5 6.22262939566299 10.296819337694785 6.296411456861906
313 46 8 4.0127557526658455 7.963174406444085 9.004962819406622
314 46 8 2.736443706965391 8.157146007727924 9.364291874000795
315 46 8 3.4804270150061005 6.463198026595298 9.568471071292397
316 46 8 3.1920913079593713 5.082708839787985 9.254184364820961
317 46 8 3.3997431473642004 4.1650516966829345 9.818815694037522
318 46 8 4.246572970149658 3.186235478251849 9.97247284531546
319 46 8 3.7322514726123623 2.921143926707258 8.780593640652596
320 46 8 3.999585952019262 1.6867819849315062 7.306195469398705
321 46 8 2.7933269541442254 1.3222211965360657 6.33256177703295
322 46 8 3.671904898758391 2.188553527370763 6.385713174036177
323 46 8 1.8240356712765535 2.471598029558137 6.659424679991294
324 46 8 0.8709132673721897 3.1130044773818635 8.114466244049545
325 46 8 -0.08293404410900332 4.008110495742017 8.893614305851239
326 46 8 -1.3785636765886904 3.7944050092005965 8.052037255344105
1064 76 8 0.18148966508203296 3.999277220183597 6.727522084931485
328 2 8 -2.9661837582421096 1.682601312488823 6.809696051425632
329 2 8 -0.7291630898911382 1.677767395754627 7.23481273310953
330 2 8 -1.829463487909783 2.170069487193117 7.971536999750077
331 2 7 -1.8205517456363647 3.02830173407967 9.255581835680472
332 2 7 -0.29908490246458025 3.3338427410989535 9.707876631692582
333 2 7 -0.8966288540605087 3.4181907869208508 11.225951512526379
334 2 7 0.2928591350518034 2.900465995812666 11.317843268416143
335 2 7 0.9891817132492049 3.7993187853257275 11.581203538226276
336 2 7 0.6102133572790456 4.738394165962702 12.916417170172094
337 2 7 1.8796785155778044 5.211997837633408 12.554342426265272
338 2 7 0.5427978881051888 4.598020633968135 14.523021154629795
339 2 7 0.05510545312626257 4.594166775500481 15.921093966897292
340 2 7 0.44949431333778883 5.883942972062364 16.636663258142462
341 2 7 -0.3112745128083614 5.666956605212047 17.46624599029662
342 2 7 -0.07732041541097479 5.489018974269667 19.042588127620693
343 2 7 -0.7344415735590976 7.005603878838409 18.816036460845602
344 8 8 7.769739453823483 18.53860462192129 -7.977283031451989
345 8 8 8.896295893486656 17.92176877937208 -7.902495839689291
346 8 8 7.989224405926216 17.65885923255537 -8.564468815096959
347 8 8 7.937943158687265 16.635784572038823 -7.435765523141081
348 8 8 9.163559255118031 15.418353289728016 -7.893077116520164
349 8 8 8.081953641119012 14.81845565065406 -6.7518816791368605
350 8 8 8.691348120143365 13.94472227959328 -7.326113431325354
351 8 8 8.855455320778768 14.647294116072809 -8.527743002533326
352 8 8 8.545334975138417 14.391494304868772 -9.649147862175296
353 8 8 8.496556880505226 15.545494263026187 -11.497480567477227
354 8 8 7.82370844264696 14.420948202040814 -12.335072555401615
355 8 8 7.492937672932334 13.390790318067353 -12.758047981197866
356 8 8 7.649007014793764 11.954800469797096 -12.132517518722658
357 8 8 6.954144419058425 11.072937493186979 -12.38017069356786
358 8 8 8.389574731194577 10.111322618998182 -12.428425843062074
359 8 8 9.055458161409238 11.065401864752793 -11.917869834839276
1057 76 8 9.097166250398006 7.112355442606562 -11.81667176621092
1048 76 8 9.90163899949276 7.995142252186721 -10.20648027424985
1066 76 4 11.29387168679293 7.478430114597682 -12.201283478176931
1051 76 8 11.983169039991447 6.697811423042468 -13.0792198042952
1077 76 5 8.614522341973613 5.8529871073060455 -12.046426567191315
1063 76 8 9.903704450040907 2.334079874884392 -9.05079306671166
366 35 8 8.789977341841002 2.445061987012879 -12.200036548921362
367 35 8 9.173363827373882 1.4198345416601856 -13.135962397492975
368 35 8 8.642093045047028 1.4390053412231727 -14.357876342917711
369 35 8 8.03892627840979 2.234617867288957 -13.736360498883418
370 35 8 7.99344520242978 3.8844222859690025 -13.989597034980031
1038 76 5 9.7453423618801 8.445113403287008 -13.87485703824752
1035 76 5 15.549374427940142 6.407069582203416 -17.077185850988243
373 43 8 13.017771128243501 5.494286594448458 -17.839233999197223
374 43 8 12.94373374966 4.922145437492822 -16.67605478051357
375 43 8 12.231925990436384 4.576289156239418 -17.724399262014508
376 43 8 12.328885472149654 3.317085616206248 -18.76372031543703
377 43 8 11.35680377539143 3.150850294166106 -16.502143100023638
378 43 8 11.747600206683767 2.2173027251937416 -17.712811189175877
379 43 8 12.900245591706827 2.307241617584447 -17.36319842881949
380 43 7 11.701686842635187 1.1686710988085625 -16.96598128643403
381 43 7 10.96426541196457 1.1145210989195404 -18.662183636398552
382 43 7 11.86233582632986 0.6270255088604296 -19.730584720541223
383 43 7 10.627816021607352 -0.37423391552939633 -20.25787639717714
384 43 7 12.09123916834268 -1.560293822215625 -20.147877700128866
385 43 7 13.66482071129771 -1.4020124348566758 -21.022836401761126
386 43 7 15.26680799788481 -1.3484483321653857 -21.68334637672056
387 43 7 15.013536094846025 -3.0687044976397573 -20.98746738962588
388 43 7 16.013449237628866 -2.7688471514849238 -22.7125374684338
389 43 7 16.46543869539031 -1.6404612241248007 -22.372771042057952
390 43 7 17.17322924322128 -0.7259771780942363 -23.76802734141929
391 43 7 17.13279375249587 0.6134624411004564 -22.988767206135815
392 43 7 17.634995496718705 -0.9769481329839068 -22.10076043499138
393 9 8 -5.755489425882313 -2.304504527218987 -16.85308120310352
394 9 8 -6.632418358625612 -2.4106318656396524 -16.174391593970288
395 9 8 -7.59948488051995 -2.5004596753865145 -15.47130779732489
396 9 8 -6.67482572231237 -2.4396681601685235 -14.437632330873145
397 9 8 -6.856790026115795 -3.726893096970956 -13.67504732566141
398 9 8 -7.708664392048752 -3.3113271873633083 -12.677927545944117
399 9 8 -8.619926845274348 -3.1215740286464633 -13.426117154773218
400 9 8 -7.785321697280136 -1.6946927796445292 -14.142700132517305
401 9 8 -5.962468577773602 -1.7651457171274438 -13.659284102442207
402 9 8 -5.47675570604232 -2.0909903312599116 -11.768211865292198
403 9 8 -5.510939856937908 -1.1453632056362095 -12.45260966845362
404 9 8 -5.104387473677398 0.1418198239117675 -11.884214684143613
405 9 8 -5.919006792664165 -0.04146503156518959 -10.791370538682916
406 9 8 -6.475326012224986 -0.6699791956047931 -9.775427046972956
407 9 8 -8.017972883477471 -1.5844863724123182 -10.1341321490314
408 9 8 -7.961042487420359 -2.5678985585919714 -10.550321091698518
1010 76 4 -2.019689169818852 1.2088849442629377 -9.150801241385286
1022 76 4 -7.659273902543231 3.0520408918992854 -7.038497060982798
1016 76 4 -6.942057593049548 3.737675904185149 -6.746996922119348
1029 76 4 -3.691482598140199 -4.497589170505973 -6.7140450700014815
413 54 8 -6.155660334028529 -1.9680306030335597 -10.301266981266055
414 54 8 -5.505707428253924 -1.7326211078675215 -8.397752685246017
415 54 8 -4.153232511651119 -1.8864522620532271 -7.792511608256575
416 54 8 -4.672334996108146 -1.2422991580635647 -6.639819420820659
1021 76 5 -8.741271355410856 5.371288395735182 -8.59374798460503
418 33 8 -7.835260886884756 -0.6976367190786668 -5.48576310082905
419 33 8 -7.562325996259241 -1.7497509410077552 -4.515136184244605
420 33 8 -8.176063695218888 -1.7617281595728338 -5.708180644016378
421 33 8 -9.707738127501305 -1.3013531157708649 -5.341232676092815
422 33 8 -9.757238927453423 -2.195216420002751 -5.913825551848969
423 33 8 -9.529252349899599 -3.25892433993604 -6.487434676801873
424 33 8 -9.43905773849883 -2.3078424160515767 -7.381147681887776
425 33 8 -10.587367714441791 -3.9144444248284724 -7.334109831100391
426 33 8 -10.058770197920271 -4.790766439457525 -8.521219695091828
427 33 8 -11.013772051293799 -5.117323707414723 -7.078385410735879
428 33 8 -12.463759576426247 -5.771845941162477 -8.658947778377527
429 33 7 -13.249404988186967 -6.615664206998483 -8.860633376569025
430 33 7 -13.892825857845276 -5.2707130339242445 -8.526531285356533
431 33 7 -14.205196569889708 -5.290486596083738 -6.94140209381878
432 33 7 -13.560641222206696 -5.198742526278573 -5.847736517373977
433 33 7 -13.19418604703065 -7.080133164235704 -4.832447451325399
434 33 7 -12.313187679245162 -7.7916408135261275 -5.648493640667367
435 33 7 -13.209077800091958 -7.551751031078669 -7.671207681737412
436 33 7 -14.582906446385804 -6.65228005663751 -8.4142351284132
437 33 7 -16.660290817896797 -7.405136317589597 -8.002822953465378
438 33 7 -15.78556591251594 -9.08887189918233 -7.794873029376179
439 33 7 -15.63928004362643 -8.741274791038311 -5.859330545704517
440 33 7 -14.54787863170448 -7.8756971108209015 -6.577996580736046
441 33 7 -14.928610994931406 -7.395917495589283 -5.046624236779489
442 10 8 -0.8215691362111643 15.990078712778182 1.3541214535849402
443 10 8 -1.9991835715532764 16.93586749351912 0.8244025812729977
444 10 8 -2.2441905424691333 15.760799470093074 1.1467763457664455
445 10 8 -2.486527612924037 14.612695710536808 -0.051237960179007065
446 10 8 -3.8420404726579265 15.819082302894087 0.7540110622805145
447 10 8 -4.294082680072393 14.5096171960702 -0.15818015068294625
448 10 8 -4.487039317983371 14.04007936641789 -2.45507849730498
449 10 8 -3.7702536263562743 12.743763750588462 -3.3426957936148733
450 10 8 -2.484840215273702 12.998895219480877 -3.4608692793880906
451 10 8 -1.4353770730678703 12.075448517589699 -2.8908012414385116
452 10 8 -2.0674151596345567 11.810116371362254 -1.8342150596870215
453 10 8 -1.1440416341707265 11.79722457621339 -0.5173872249023335
454 10 8 -1.896562308989865 10.716460055402774 -1.3401504537547213