# Generated from readdy-to-lammps

1005 atoms
690 bonds

10 atom types
1 bond types

-30.0 30.0 xlo xhi
-30.0 30.0 ylo yhi
-30.0 30.0 zlo zhi

Masses

1 1.0
2 1.0
3 1.0
4 1.0
5 1.0
6 1.0
7 1.0
8 1.0
9 1.0
10 1.0

Atoms

1 1 8 -14.223718352621047 -8.596630162340453 -12.163652256138358
2 1 8 -14.866256685253271 -8.94322627072176 -13.702666326737955
3 1 8 -14.223932385312093 -8.178174397031459 -14.094321438341469
4 1 8 -12.463206913051259 -8.441887437151895 -14.497825659145182
5 1 8 -10.882989581715055 -9.324575909484018 -15.011663704290347
6 1 8 -11.08655380504171 -8.031845838222049 -14.61783953888222
7 1 8 -12.261901017852539 -6.6364349914541965 -14.403713177137972
8 1 8 -10.817980113456692 -6.020504294426354 -13.14165060758274
9 1 8 -11.536324632622106 -5.556531080911974 -12.239607827779993
10 1 8 -12.26863875786815 -4.1420404304917176 -11.610621912961834
11 1 8 -11.102913450886417 -4.321937093320767 -11.14782389046159
12 1 8 -9.95433004278805 -3.526322169072346 -10.735596011094227
13 1 8 -9.261070878419865 -4.5142077263378075 -11.631013028624272
14 1 8 -8.567391584926435 -4.171765753368023 -12.405837963362428
15 1 8 -7.800161130321566 -4.095191496094909 -11.016467310068272
16 1 8 -6.937587163952886 -4.611107576150142 -11.400740272948218
17 1 8 -6.218548313926019 -5.858002756591956 -11.702077140724997
18 1 8 -6.266941916657332 -6.459459327240531 -10.233668110097922
19 1 8 -7.668635510463231 -7.275578805626364 -10.316840127250376
20 1 8 -8.902746427640762 -6.884501735091705 -10.896185813772334
21 1 8 -8.336383053278295 -7.509656005404544 -9.510284979087755
22 1 8 -7.96555537377671 -8.63445614401729 -7.974445347950353
23 1 8 -8.128120367921184 -10.097379073877931 -8.710761919785933
24 1 8 -6.519730514742504 -11.097183710527984 -8.966310833516504
25 1 8 -6.687559009851349 -9.936294508871084 -8.51539414749586
26 1 8 -6.4385425051834195 -7.992825972264361 -7.293451154920246
27 1 8 -5.576872827843336 -7.0359975768768575 -6.963940502978665
28 1 8 -4.252139899909275 -6.863071075382381 -7.9359042163899565
29 1 8 -2.8214906879345047 -7.0855859413599145 -8.658174457245181
30 1 8 -3.042221321250224 -6.8449353447109935 -10.719559479014029
31 1 8 -4.31829625144591 -6.407123008022129 -10.882517618272255
32 1 8 -3.6401444854703287 -5.549325510326104 -11.64146937301557
33 1 8 -2.759680301344662 -6.040643087082592 -10.097395685622905
34 1 8 -1.1029063991538646 -7.16301228643288 -9.528827551500022
35 1 8 -0.23215938247658083 -8.230689332096537 -9.546987240781284
36 1 8 0.32245091770876905 -7.1232921880548465 -10.501112502563007
37 1 7 0.851894019867464 -7.653464020426397 -11.390255854529553
38 1 7 -0.712906688665158 -8.262152651846675 -10.649652995743544
39 1 7 -1.5950350135234543 -6.416873725533829 -10.923704107789856
40 1 7 -2.0065291251855313 -7.539264176258401 -10.022437260861292
41 1 7 -2.732776381421549 -8.016510067276384 -11.481944610632565
42 1 7 -4.330145218082726 -8.369563991771901 -12.284039492569606
43 1 7 -4.980827026740784 -7.480643656962031 -13.862578633439714
44 1 7 -4.14591115839629 -6.50311503154021 -14.175269983005695
45 1 7 -3.636477604051356 -4.882195169502668 -15.085682987658663
46 1 7 -2.2226259285470533 -3.662852851286033 -13.436996231464434
47 1 7 -1.2570131837978276 -3.538590576570852 -14.451975138410823
48 1 7 -1.5077641961493906 -2.1614175546882413 -14.167614841496247
49 1 7 -2.156157889708048 -0.7520724999911064 -13.166588527030305
50 2 8 -0.9814751147684662 -2.7091042589325776 -2.881458106888823
51 2 8 -0.2222860880462127 -1.492210658486516 -3.0856178519696433
52 2 8 0.8739635485229937 -2.2081176865782126 -1.3658961243913714
53 2 8 1.5406498223038314 -2.3854987481550225 -0.10145135631905142
1042 55 8 0.7535134573733604 -3.94206235582144 -0.992014349304457
55 54 8 1.6276367570217758 -5.980222957247875 -0.25468946310542956
56 54 8 2.56421096296071 -6.85026304881765 -0.4126300504777335
57 54 8 1.7167252723923718 -6.066835838146144 1.3257817977825486
58 54 8 1.3427870833645867 -5.78860301769225 2.4680249565390646
59 54 8 0.4695394652247947 -5.986866569523054 4.069114882087394
60 54 8 -0.2188364333195882 -5.240353158180003 3.232785896727078
61 54 8 -1.1721661170725293 -4.214185910309584 3.776638228639908
62 54 8 0.076357331842577 -3.368965229834871 4.057693285610651
1007 55 4 -1.5153190344876135 -4.889841759044294 5.8173615966587935
64 27 8 0.31471742099979716 -5.700684011749015 1.284494842940321
65 27 8 -0.7481855879545077 -4.7347464095575695 1.5392793198819514
66 27 8 -1.471240948357774 -4.856383637002009 2.698963656670054
67 27 8 -2.7761378710317968 -4.237827447453928 3.409957935104399
68 27 8 -2.2163454599567975 -3.1418420470590642 2.8536005767505928
69 27 8 -1.0601273365494999 -2.871896803106282 3.565483913395464
70 27 8 -1.0657895087373588 -2.18727717684631 5.460496615713185
1036 55 10 0.06563001216821465 -2.345299428503454 5.467578239897428
72 27 8 -0.9268438428588512 -1.1514315968524806 4.9322128621380825
1009 55 10 -2.3521473946603426 -0.895099766304289 3.987479987842878
74 27 8 -1.922800021932516 -1.2333323844729096 2.239554531576088
75 27 8 -3.02818471330379 -0.8440450797713385 2.3694208060481428
76 27 8 -3.9219664641482677 0.2291608107523436 2.3259735235699925
77 27 8 -5.561079075876886 0.40412029753785694 2.942000618003566
78 27 8 -5.173112798950696 -0.34079852001965066 3.552148667352359
1037 55 10 -5.086285707932127 1.2024146256782837 3.9745804224128927
1017 55 10 -3.7131783580150604 1.1252095239953084 3.567717429344941
81 27 8 -4.413134367792535 2.1798188120669297 2.2809430910307684
82 27 8 -4.107774967535091 3.278087027683293 1.9494371469967386
83 27 8 -2.9916865946494187 2.9053662444381088 3.1846884020098307
84 27 8 -1.8992281673326408 1.545660539618642 2.728721508599188
85 27 8 -1.0906417918923657 0.9449642762734644 3.279628408246847
86 27 7 0.08075280645520545 0.41597950947071427 3.218965077066282
87 27 7 0.8672777622141624 0.2980345782386415 4.261008572453099
88 27 7 0.9219074735125833 0.11134789631656 2.566261275510303
89 27 7 0.7556696128067054 -0.9693506938555025 2.0230027319506694
90 27 7 0.9688517696275131 -1.5599131256551844 0.4577095634469928
91 27 7 0.7042285917902692 -0.8739183846749959 -0.3255749844678268
92 27 7 0.8788523651297616 0.5045673558172176 0.7623712318404633
93 27 7 -0.2681620710171336 0.7149035186467853 1.1757572467431108
94 27 7 -1.4659200477097898 0.9474716118794548 -0.1950423682912864
95 27 7 -1.9022523186295999 -0.4133084277242151 -1.1910483390664015
96 27 7 -2.34224905313808 -1.5021247455215578 -0.4605262752089168
97 27 7 -1.1707144307934367 -3.234265025785427 -0.8374931053270729
98 27 7 -0.5672473220163071 -1.9122603238981728 -1.2206891117076808
99 3 8 0.988423439086258 -9.049158213488418 -0.36267190483039025
100 3 8 0.315113209587313 -8.342167988982998 0.9668674078066094
101 3 8 -0.8452707652143018 -8.231181934812156 1.2970437440002802
102 3 8 -1.2702045648894769 -7.765392446580251 2.1214678440285786
103 3 8 -1.1678383989847336 -6.491000561941334 2.047371580562676
104 3 8 -1.5466494765474779 -7.459594146660479 0.33383278817905143
105 3 8 -2.7415221723384833 -7.578584289763395 0.3515617776042833
106 3 8 -2.1277197388256175 -7.843725936767162 -0.7831758209343666
107 3 8 -3.383618471671911 -7.574056317823945 -1.0858892497929291
108 3 8 -3.8829569417989496 -7.588462138290034 -2.6202338075526814
109 3 8 -3.790797985899867 -9.358173795825257 -0.892499011877909
110 3 8 -4.39686292575105 -8.046820239671586 -1.2796825706908863
111 3 8 -5.137765943567799 -9.250708346737781 -0.36902294307574834
112 3 8 -5.97080778727149 -8.847289785220118 1.1607729255041954
113 3 8 -6.827051947793517 -9.28606902657228 0.513794616797321
1024 55 8 -4.955819446104804 -11.69353138897321 0.32141479517861266
115 43 8 -5.748069828781698 -12.17636989707933 1.7971047546520307
116 43 8 -4.973443697981368 -10.873907251933671 1.4053705677867945
117 43 8 -4.282580620305337 -9.185490346667319 1.9166846628041991
118 43 8 -4.076981059509479 -8.963410126296534 0.48561958942148464
119 43 8 -5.232868320118453 -8.107417500094586 2.1554251941301286
120 43 8 -5.1776640975911725 -8.915170927259318 2.8380906265390493
121 43 8 -5.080543099794274 -7.670306821441218 3.309986724970669
122 43 8 -3.7777496768813346 -7.007285236400588 3.8473599406363763
123 43 8 -4.173552699299657 -8.117287281030565 4.037702100088229
124 43 8 -3.838784183860266 -8.472303412044283 5.034933879526889
125 43 8 -2.85024483789957 -7.95812102957737 4.366315230246276
126 43 8 -2.3923730308021436 -9.596259996998663 4.396666594948597
127 43 8 -2.2065747155960893 -10.701053278232328 3.236988345448663
128 43 8 -3.5497184343303374 -11.030224927226808 3.083922406369942
129 43 8 -3.600228617142796 -11.83260777951861 4.318684834719047
130 43 8 -4.332269452990891 -12.246388264604356 2.770136307227982
131 43 8 -6.102371718788355 -12.903233170195886 3.121820177299802
132 43 8 -8.06039528159109 -13.048784583408045 3.7886234935922514
133 43 8 -7.940534476051275 -14.16107985205336 3.6047021365046534
134 43 8 -8.127118190296322 -13.03737476074646 2.144851861276423
1025 55 5 -3.421849501695755 -13.644994225935946 -1.0917438861936193
136 40 7 -6.80168423061224 -15.294050943029973 1.1537427060139585
137 40 7 -5.5462851457883025 -15.976316142719229 0.2683861219879929
138 40 7 -6.010396369396547 -17.115222788753414 1.591976132730634
139 40 7 -4.975179851372874 -17.46288731131046 0.30265647635431625
140 40 7 -3.3051253503319318 -16.563195841329286 1.0338051386403362
141 40 7 -3.3283850526269663 -15.398253613226958 -0.6519907003919232
142 40 7 -1.817158025466244 -15.118798803229778 0.1258855041184952
143 40 7 -1.5718361719836944 -15.414741993193658 1.4240951996392204
144 40 7 -2.5337682041064693 -15.263626101785528 2.8638282429976742
145 40 7 -2.6236843816011692 -13.707581123412826 3.846793048649053
146 40 7 -3.9486523069471615 -13.683638427707518 3.677898625770914
147 40 7 -4.485185629053897 -12.7008994755987 3.7885651206465005
148 4 8 -0.3538713354929856 12.226281191013426 17.02833660757786
149 4 8 0.09916270482534129 10.99146025287332 17.90447592739393
150 4 8 -0.6511549392472586 11.41145638403679 18.82824152043296
151 4 8 -1.2818092192065362 9.931381145907022 18.422345732288328
152 4 8 -0.13053514444249287 9.791498923088346 17.569434513579093
153 4 8 -0.4064739172814433 11.021866583948631 16.804044128460376
154 4 8 -2.030766067184304 9.733205159863264 17.561446267716367
155 4 8 -3.391494983227125 9.70031252041288 18.87685062827252
156 4 8 -2.8858319249460047 8.504894352639633 18.363365209764815
157 4 8 -2.861516573142707 7.465608869436719 17.236761388649185
158 4 8 -2.0705066068689226 8.258299491950424 17.398367332133702
159 4 8 -0.8454144472934785 6.734042713735915 17.6406565280218
160 4 8 -1.226693050773219 5.423761484620269 19.6909379564005
161 4 8 -1.4510077767951866 5.957323708161581 20.605977381559175
162 4 8 -2.741458959672968 5.250515511160387 20.72597431845957
163 4 8 -4.032127439629757 4.913105575993 22.649435580983308
164 4 8 -5.99214147932782 5.368308247799942 21.1090897941271
165 4 8 -5.252071820469843 6.709120902299684 20.264796175077745
1031 55 10 -5.313512267908536 7.376619495061364 22.381355332566194
167 4 8 -4.608312469058506 8.190555698944596 23.135429342680553
168 4 8 -3.9337414715822354 7.416981202006476 23.744211038985416
169 4 8 -5.285740144138991 7.304152022660671 23.822405535860604
170 4 8 -5.508150780411572 5.402077272030121 23.962793433609512
171 4 8 -5.393989292838009 4.043368881031687 24.192219582713317
172 4 8 -4.125832663672978 2.84065174549451 24.100055906595397
173 4 8 -3.3463134270033437 1.6871777596543953 25.01260952347093
174 4 8 -3.5205263855054687 0.8085741866476223 23.94705901079302
175 4 8 -2.1930360707314276 1.660812972323508 23.87931486827698
176 4 8 -1.9308912941930154 0.5713116094393208 25.104057598659658
177 4 8 -1.782908925429022 -0.31892030340462124 25.944864253045434
178 4 8 -3.199452572773316 0.5603354386862665 26.941394739371116
179 4 8 -3.995084357861182 0.11290973631799793 27.820257627162697
180 4 8 -5.236144419121648 -0.08575168495662848 27.69181910209505
181 4 8 -4.396121232204763 -1.4794627127686297 28.320458068014972
182 4 8 -2.919898124636317 -0.6170836173913832 29.08235964145589
183 4 8 -1.8402751164649973 0.6637622589450867 28.31265983203108
184 4 7 -0.26249170574050723 0.5517079406367668 29.184008087950076
1028 55 9 0.8034052073725375 0.0689717010175225 27.33864610890255
1023 55 9 1.8955678986691034 -0.1251221834523732 27.969627555149547
187 4 7 0.6057638478399495 -1.470140255218787 27.36012865135096
188 4 7 -0.21453752485045335 -1.6075334133015382 26.329409089458892
189 4 7 -1.490905884746331 -2.1261848354758834 25.694180683099706
190 4 7 -1.483020691275315 -2.571022913990957 24.10109019897826
191 4 7 -3.5326151561355723 -3.4704231529269425 23.02954333819172
192 4 7 -2.0191260997052316 -4.051113995544181 23.19325045751771
193 4 7 -1.2614298714734935 -4.971881467597057 23.271382697699767
194 4 7 -1.8484651905149918 -5.767703278609821 24.489927914310755
195 4 7 -1.9544621204550299 -7.272693745204584 23.009742913516654
196 4 7 -2.089246394891903 -7.293174533086208 20.6503689436415
197 5 8 0.8993086980733417 -2.5277628771379503 13.66734492358517
198 5 8 1.0033623779388092 -3.789832733737864 13.023824571628632
199 5 8 0.6926462444213161 -5.071302629255175 12.79228557623871
200 5 8 0.43935732336738675 -4.999365488867537 14.079397314407268
201 5 8 1.0836846495276093 -3.988708802812405 14.629277619132749
202 5 8 1.585032535255952 -3.1309439742288614 15.21904935204131
203 5 8 2.5711446622369745 -2.212151344761039 16.09836031854554
204 5 8 2.4799299366834746 -2.6930839285091785 17.27182528757624
205 5 8 3.6036912823350638 -1.5829750928117194 16.83794811895169
206 5 8 4.897995725159104 -2.1750893421663795 17.20123766355124
207 5 8 4.7448262110659964 -3.0797891633090293 18.13917890738986
208 5 8 5.609767694569789 -3.869338498843769 16.661875686878872
209 5 8 6.393278302708836 -2.585551041977397 16.388731562147886
210 5 8 5.253221208897968 -2.4281804903514956 15.484202658222696
211 5 8 5.593523845369126 -1.610429482919322 14.538938583091685
212 5 8 5.189212536178006 -1.5023986504278797 13.531597921598719
213 5 8 5.199817987364673 -1.2546210522361896 11.734910769625722
214 5 8 6.219445520668043 -0.7222810483875954 13.149049997067973
215 5 8 6.778363132896868 0.5299008590850006 12.270771649755183
1019 55 8 7.206432114707373 2.1402123162586077 10.387996134368816
217 30 8 6.305391439458902 1.0782842550926262 10.308778952967483
218 30 8 6.002115297888918 1.9026847478626214 9.40662181335627
219 30 8 6.9102196411943835 1.3210444426619983 9.331592706802205
220 30 8 8.057898634530073 1.0653120057644663 8.347882289385536
221 30 8 8.409891845301905 -0.3583598302934178 8.926227754189386
222 30 8 7.172806509006043 -0.9772771388239491 8.546182398354073
223 30 8 5.992703651824955 -0.7204891745325143 8.109156620988143
224 30 8 7.178368191875101 0.30115089309892573 7.403321858387967
225 30 8 7.128258612244686 1.386514995066306 7.223426022730506
226 30 8 6.4303792015212835 0.5997155930098035 6.1598438770286155
227 30 8 6.872452916219958 0.749786721189826 4.98874390092969
228 30 8 6.457013475743923 2.0984452277774426 5.288127621676781
229 30 8 8.000620873392391 1.434068194498969 4.9490755279520515
230 30 8 8.359134666849505 0.9620101800872494 6.204602396002651
231 30 8 8.729087019978204 -0.6910345596200209 5.132186154610972
232 30 8 9.304187331409464 -0.6236832845486777 3.574299867183293
233 30 7 9.952567970306037 -1.319873890438874 3.0616458303728127
234 30 7 10.193149251456413 -2.6030680428710484 1.8861920452529695
235 30 7 9.134006121367497 -3.994497360451662 2.0179475629042085
236 30 7 8.934385970031459 -3.5300730682804917 0.4167234480026514
237 30 7 7.736853575595802 -4.844441433263931 0.6639569642472981
238 30 7 6.46922820958827 -5.817020177162467 1.4549313324913704
239 30 7 6.4923975809494054 -4.010518130601505 1.4419976088241788
240 30 7 5.229289663698238 -3.9242906511466153 1.9110879030599608
241 30 7 6.2283788736321375 -2.3639629774741366 2.6672317326757318
242 30 7 5.432978312855637 -2.514444609036793 3.4834208176616164
243 30 7 7.411973162585625 -1.6602991382814862 3.225872122692531
244 30 7 6.603589434891807 -0.24932967676483567 4.1075140877253755
245 30 7 7.41339426272668 -0.9452345175858169 5.227313931481186
246 6 8 -0.2490357041937863 2.20823690278944 4.637781307759711
247 6 8 -1.0165863319068933 1.3184251555952236 4.355981444403912
248 6 8 -1.8300419936647394 2.2777071972137666 3.794893810618078
249 6 8 -3.2489917671711437 2.8051125079683366 4.2629597437645685
250 6 8 -3.22965848642408 4.643824739254864 4.027329938201453
251 6 8 -2.094224822520543 4.074732455569055 3.6913802273094536
252 6 8 -0.7862608028312761 3.4880441527024613 3.633623688768758
253 6 8 -0.08630509575670449 3.992720589903676 4.41751853089377
254 6 8 -1.4938828203909376 4.08400179419489 4.97639278731583
255 6 8 -2.06203553768649 3.271275317041386 5.623754967707253
256 6 8 -2.667802277612282 3.063384307935916 6.627720692283251
257 6 8 -3.2032323770005604 4.032413279395883 7.17940862266063
258 6 8 -3.060045864791156 5.435873685123473 7.801700604101733
259 6 8 -3.65806155543555 6.9515129541144045 7.507945336850668
260 6 8 -4.413597264088075 7.112925538669089 8.659303877841692
261 6 8 -3.0891639217145133 7.016175579480332 9.481286292113007
262 6 8 -2.333923396505602 5.656403172759345 8.982672525790022
263 6 8 -3.1541012381858997 4.10123272423164 9.868713876946027
264 6 8 -3.703541602740511 3.2437652658242864 10.518939771560342
265 6 8 -2.7730746137322724 1.9889688387683087 10.110287589930179
266 6 8 -2.023415772454917 2.6948113530430526 10.664888212196983
267 6 8 -1.2573691471536836 2.370216934316751 10.07766472803113
268 6 8 -1.839624931685092 0.8917919195864116 10.849283183269446
1034 55 4 -2.1924431889553033 -0.7725902890842871 11.260896884819932
270 46 8 -2.1026773289155187 -0.6825424547487025 13.039405870396637
271 46 8 -2.4621781944303933 -1.258991470394253 13.667986553435785
272 46 8 -3.003134332095214 -2.652173859168931 13.02773637049442
273 46 8 -3.678009748841407 -3.986590783432957 13.136949366198406
274 46 8 -4.269435939051946 -4.038274872562721 12.154597833994497
275 46 8 -3.4107625812842612 -3.5016932337664874 10.246417363475334
276 46 8 -4.960596723479026 -3.117441166696157 10.402526145303307
1033 55 8 -3.9964660022812692 -3.387882401061083 9.009104290706954
1012 55 8 -3.4608909567530364 -1.791718869982845 7.797093738143339
1026 55 8 -5.501885648244543 -1.7562997138515957 8.55407002542836
280 50 8 -7.0185120121388005 -2.41411719768982 7.585449524213944
281 50 8 -5.504099973370381 -3.0858127444112315 7.337166300353672
282 50 7 -4.347368215227698 -3.407643792236595 7.045285010667125
283 50 7 -3.27767647096806 -3.7789547754494333 7.176686722934719
284 50 7 -4.118142240049747 -4.426718319168931 6.441801467158272
285 50 7 -5.756499186091701 -4.674958800156097 6.296793566360297
286 50 7 -6.114484579782603 -4.1812368485603395 7.446031530158023
287 50 7 -6.897235858788051 -5.601072237715192 6.726591575759477
288 50 7 -7.290502983779929 -4.8040413110249105 5.688588316232016
289 50 7 -7.471582396194293 -7.0396112550918035 5.533514142088747
290 50 7 -8.800020975318311 -7.41745802624219 4.838735312900123
291 50 7 -9.114669655419393 -6.019009902688103 5.2394649360041035
292 50 7 -9.753895954662811 -4.793658907497452 5.886553076000812
293 50 7 -9.760066596369263 -3.1335904870179045 5.031798727008498
294 50 7 -10.418021435369981 -2.1755524960805035 3.8690994461640136
295 7 8 2.534883296626506 14.566475445797275 8.402559167525803
296 7 8 3.059141344592131 12.781192185873115 8.256614217150988
297 7 8 2.9372058375025136 13.460961844709635 9.424045402714155
298 7 8 3.0781225328887807 12.274066188848932 9.360892271575732
299 7 8 1.0883118124776714 12.764886886315056 8.62765254229084
300 7 8 1.2795060555972324 12.555641546462248 7.249328599537914
301 7 8 1.6582675850729436 14.247867134211305 9.404730688570584
302 7 8 2.79431007282594 14.746751149378671 9.687648357947795
303 7 8 2.195273167780362 14.447839108650417 10.577133013443529
304 7 8 1.2530668883368985 12.849502018533702 11.345572241379637
305 7 8 0.0245246093818525 12.531535136441224 11.26613745454224
306 7 8 0.9270325564060589 11.360068648547234 10.828937147652091
307 7 8 2.097901337795688 11.079122449925087 10.916031069171387
308 7 8 3.766507417587227 9.629230447571922 11.197345137565376
309 7 8 3.6809670707067896 10.843698681332226 11.232675066549824
310 7 8 4.836971778575613 11.282629370008884 11.038069210244428
311 7 8 3.7213122061101283 10.958228787650446 10.143311917758446
1011 55 8 4.734347382237015 10.381775512930012 8.739320422190296
313 44 8 3.060197956135912 10.252396864098099 7.183081711021314
314 44 8 2.4608178055946435 9.21464949154588 9.098534518817434
315 44 8 3.059950053467161 7.635458674015215 9.423935794446784
316 44 8 2.4961490533772928 6.611368120113861 10.06289949871593
317 44 8 2.0056557726900976 5.416956990883312 10.483179746005064
318 44 8 2.2744686756125048 4.832338069412267 8.769913454799408
319 44 8 2.0840343786237154 3.323865441909881 8.230546721459646
320 44 8 2.4895318527890025 3.28191840884219 6.563462312487397
321 44 8 3.1449475868930348 2.07592956501868 5.86070327380029
322 44 8 1.8535018212950152 1.753794601885566 5.2891767464629345
323 44 8 1.6661889453030243 2.876373436688049 6.000179672316982
324 44 8 0.3426960519940622 2.7625957281864317 7.316921883332486
325 44 8 0.35377714015936607 4.376854602686207 7.76482472701091
326 44 8 0.8333814319836494 5.016681576057665 7.040020878306189
327 44 8 -0.4635153577775002 5.916759619464022 7.927696318551164
328 44 8 -1.4493490759501095 4.460938116669412 8.76660158515186
329 44 8 -1.456652861545782 3.2402124621402946 8.472768498946259
330 44 8 -2.1404688428112157 2.6605185824215782 9.388439157910385
331 44 7 -0.39617659203438044 2.3224787942660474 9.172635480926568
332 44 7 0.1436276032227105 1.589171549081449 9.8782685301891
333 44 7 -0.6303647349279934 0.7308567957511658 10.788244931582225
334 44 7 -0.9007515560618646 1.6107050555462166 12.045750810381756
335 44 7 -0.1370074855385748 2.1831308787892967 13.047340393489428
336 44 7 0.6920801027183181 3.1519057651110156 12.837904233237529
337 44 7 1.3822063000003568 3.3808695277024254 13.78381375329675
338 44 7 1.6429970297643244 4.989621173781723 13.70285828924804
339 44 7 0.5152361957925986 6.650983230209472 13.98474425649885
340 44 7 0.6693051554376237 5.551929722637476 14.620241411420245
341 44 7 1.7535719727230084 5.004952822233437 15.146177246537679
342 44 7 1.1732734627543482 5.100781009318113 17.090253589067384
343 44 7 2.00571414339735 5.915157601974292 17.780611882099176
344 8 8 6.654318795193802 19.337867138320636 -7.918932183884068
345 8 8 6.621983502244738 17.870410931847054 -8.7534586028009
346 8 8 5.38432898488625 17.141673069811638 -8.59653304158084
347 8 8 5.0678890587744965 15.839081714016245 -8.904956565991387
348 8 8 6.136819183210796 16.208795206952434 -8.238335197860517
349 8 8 7.0333778737246755 15.51891433487642 -8.013917815359047
350 8 8 7.785521542299835 16.023769230410284 -9.378280071205337
351 8 8 6.96764068511751 16.61139936619638 -10.291145946378846
352 8 8 5.874140723959961 16.017076036059397 -11.431281286848542
353 8 8 6.373081374803608 14.290697576522337 -10.43493499761544
354 8 8 7.341132989326568 15.35893255710761 -10.91564737419534
355 8 8 7.71280978016896 14.332761825646783 -11.113192114818489
356 8 8 7.5086768518330835 13.034224793364682 -11.67833647986685
357 8 8 8.692411252236631 11.771584427856006 -12.37099870076607
358 8 8 9.616120064982617 10.991366390325998 -12.365872734311639
359 8 8 9.892344429453129 10.191645008981135 -10.996824607781399
360 8 8 9.810058650949196 8.706468242328668 -11.229368325426544
361 8 8 10.182353558003847 9.185014561503873 -12.228689945017216
362 8 8 11.611833646862253 8.874013997029948 -12.667970556761324
363 8 8 10.85974286502137 7.845151708005035 -12.64084013202085
364 8 8 11.56593862207683 7.041278903855381 -12.252574151176313
365 8 8 10.683448614061556 6.260408937968093 -12.64284002239892
366 8 8 10.22947013217967 5.1914293999075785 -12.427556019316356
367 8 8 8.96677474383009 4.796899254799519 -13.765983478279145
368 8 8 8.234374769674305 3.071700751092424 -13.707769104970975
369 8 8 7.4105146452939685 4.008766500995467 -13.365643045346882
370 8 8 7.525174247032934 4.473903672586313 -14.80545738177975
1038 55 10 8.384328364114397 4.629656647343622 -16.594268294868577
1035 55 5 11.043719562486892 5.809116490009774 -18.903479048779545
373 41 8 12.204310500623166 5.654912240994395 -15.330959759945044
374 41 8 13.638463992107225 4.345089559163477 -17.21560234479951
375 41 8 13.378506880580886 3.551806343874356 -16.249692029341094
376 41 8 12.19352311538803 4.140944691035768 -17.438435980185393
377 41 8 10.79781596600197 3.5356959031364203 -19.0672542785222
378 41 8 10.901451855825055 1.9941701186867302 -18.878313809713998
379 41 8 12.639346799170175 2.3551348898778612 -17.96737997532056
380 41 7 13.756798653890993 1.2644618042098372 -18.147494074203625
381 41 7 13.314811157987945 -0.17929614232067045 -17.592962524757645
382 41 7 13.20183611934393 0.2363717637014392 -18.961973395189553
383 41 7 14.274094070160004 -0.6860907029112217 -19.32913852940146
384 41 7 13.654418217241815 -1.9749108765459171 -19.07888500983243
385 41 7 14.926614045354691 -1.4418223303260689 -21.409702663538418
386 41 7 15.058515664875411 0.538370266994962 -21.906946833682717
387 41 7 15.45205680008175 0.08704236518229157 -22.95139442458004
388 41 7 16.901243744419425 -1.0139654816872479 -22.89590848489152
389 41 7 17.65067450584924 -2.822803902385638 -22.00343844172861
390 41 7 18.67967485425034 -2.01847492906492 -20.892997455567667
391 41 7 18.613010223408867 -0.879246372788926 -21.66336300426746
392 41 7 16.693785271676784 -0.28169857726703573 -21.24508955769512
393 9 8 -4.617555122201602 -3.6238706634940265 -15.665508899366076
394 9 8 -4.93489128979212 -4.749666746389032 -15.81419280705727
395 9 8 -6.021695348804725 -4.745605212270032 -14.589936403505524
396 9 8 -7.106494252431539 -4.32132086822907 -14.142693181412714
397 9 8 -6.679815684532685 -3.213499767790815 -14.369273741537055
398 9 8 -7.094583275923831 -2.6911023248888735 -13.028329668220712
399 9 8 -8.170133461477748 -2.711107244790899 -12.185063051774646
400 9 8 -7.233790938023635 -1.5831746201043047 -12.262961482176294
401 9 8 -8.093305003082602 -0.21247532172799424 -13.363323893634098
402 9 8 -6.836708009503349 -0.23865878942187266 -12.747982659383073
403 9 8 -5.3128864948181 -0.687201563067389 -12.972288242475992
404 9 8 -5.851096481455505 -0.7550016585220575 -13.77998850531729
405 9 8 -5.561972429878864 0.35223424280124427 -12.345426758062242
406 9 8 -6.656765100062082 0.1415537221675143 -10.91261783296961
407 9 8 -6.225910931243278 0.8807571166171203 -9.293676690785512
408 9 8 -6.5675126320999775 0.8581373473299865 -8.096419283351608
1010 55 4 -4.152918368237705 0.2970802994212394 -9.962703735432635
1022 55 4 -7.569249286925042 0.3070504402383807 -8.265424926616813
1016 55 4 -5.605009187856821 1.1994855764500159 -7.85560698916795
1029 55 10 -4.5454397231770916 -0.2214671296144856 -7.816805532750997
413 31 8 -3.9552441871194075 -0.9723232878571103 -8.38462263009978
414 31 8 -5.164181201807508 -1.3387976845033531 -6.946731503467184
415 31 8 -5.751635297534691 -0.562521728470829 -7.678734072617243
416 31 8 -6.833414632729556 -0.18391167365194108 -7.261748860364098
1021 55 8 -7.5733063197126125 2.815968576104081 -6.056096536072551
418 33 8 -6.796021073672571 -0.5987579001081829 -6.292348380710452
419 33 8 -7.816414581474328 -0.8057370836522354 -5.1695834761462605
420 33 8 -9.006576293934529 -0.8272323932223211 -4.3643049043755076
421 33 8 -9.873456977738647 -1.1936093374936463 -5.123158488662118
422 33 8 -11.339460217994478 -2.5522801728407063 -6.277722806631662
423 33 8 -11.283354301627117 -2.27268318272618 -7.671654837063513
424 33 8 -10.641608010696297 -3.4518925044219144 -7.248729185099285
425 33 8 -11.001073743817443 -3.6101506736318303 -8.370067993615123
426 33 8 -10.837263091303704 -4.846641129534421 -7.676797604103359
427 33 8 -11.1632390725494 -5.480626392272279 -8.718266351195895
428 33 8 -11.869735267973311 -6.22865059189051 -8.386450277335644
429 33 7 -13.119061076917589 -5.061333808077483 -8.757092490681684
430 33 7 -13.915350357785938 -3.807544678237716 -8.079891218757329
431 33 7 -14.275807604955844 -4.335665754507367 -6.768809507138291
432 33 7 -13.97678939274799 -6.040259596639901 -6.765187334670436
433 33 7 -14.83219872956584 -6.597716704491363 -5.863011209900693
434 33 7 -13.864670927573277 -7.9709512255691894 -6.039390430315889
435 33 7 -13.313263059807179 -7.276361281778169 -6.934396036638771
436 33 7 -14.15216147338164 -6.5339306350819 -7.881223733098701
437 33 7 -15.02445360269387 -8.378497389180952 -8.316877267696574
438 33 7 -15.220164959039028 -9.715847403388013 -8.038435436796743
439 33 7 -16.287517497511644 -8.328713184345167 -7.632533491371105
440 33 7 -16.848449365717123 -7.765713194127562 -5.988368479877159
441 33 7 -15.749312387635568 -8.32025970255338 -5.754592386785411
442 10 8 0.014424177503252684 15.060258378580748 -1.6300828689448195
443 10 8 -0.7756943954696109 15.827047519001438 -0.6923179851042134
444 10 8 -1.5135616205130442 16.643856049217856 -0.36466498783538637
445 10 8 -2.40761215722832 15.847783124500932 0.26144411738783846
446 10 8 -1.646978816873059 14.908766646901856 -0.9700598916795968
447 10 8 -1.7621389497220643 14.314809495193 -0.018601945030533494
448 10 8 -3.2408323182050083 14.936848105030329 -0.7678629556061488
449 10 8 -4.454942575142443 13.341342326400394 -0.8300435975660272
450 10 8 -3.649466394797593 12.63007125816265 -0.7994806103802574
451 10 8 -2.9537633946706308 13.652850904925872 -1.3637851135790269
452 10 8 -2.266403766247932 12.88364594674045 -1.3590421614676271
453 10 8 -2.885959874676557 11.34354371113527 -1.2232124590204942
454 10 8 -3.762796167137356 10.164827757280383 -0.6027726043931372
455 10 8 -3.8104523335350846 9.862814383631262 -1.7203632058422407