# Generated from readdy-to-lammps

1005 atoms
718 bonds

10 atom types
1 bond types

-30.0 30.0 xlo xhi
-30.0 30.0 ylo yhi
-30.0 30.0 zlo zhi

Masses

1 1.0
2 1.0
3 1.0
4 1.0
5 1.0
6 1.0
7 1.0
8 1.0
9 1.0
10 1.0

Atoms

1 1 8 -15.58147878508052 -10.249252721093892 -12.432189249759412
2 1 8 -15.036176700902784 -8.477266340691486 -13.017023960755669
3 1 8 -15.004198601953155 -9.523277761661317 -13.24576130045009
4 1 8 -13.559074552029971 -9.631071737832508 -14.580648898639918
5 1 8 -12.238382875732588 -9.361652389234798 -14.857457121294656
6 1 8 -12.223809522915344 -8.288256385392089 -14.150902039790926
7 1 8 -11.539615483518052 -7.212927552532814 -13.744044434636084
8 1 8 -10.957563058000556 -5.861904237628399 -14.345769049142184
9 1 8 -11.98723061214988 -6.08261091885333 -12.9156211067496
10 1 8 -11.645756417445407 -4.536162009535935 -11.445985183404714
11 1 8 -10.7640661850118 -3.7752264934227187 -10.76801024131188
12 1 8 -9.487337310072121 -4.83179289385546 -10.87490828219698
13 1 8 -8.927042830234448 -5.953589108407157 -12.406648275675526
14 1 8 -8.236940442618941 -4.885487144146568 -11.583587336476224
15 1 8 -6.822444998552753 -4.264731208872378 -12.254046334778977
16 1 8 -7.031097539159403 -5.308716941863188 -13.437259629754985
17 1 8 -6.75601002165463 -5.379283615551153 -12.027460452891802
18 1 8 -7.090260289104407 -5.664165610411274 -10.625340493389523
19 1 8 -7.752172651538804 -6.831512592667204 -11.41819863811906
20 1 8 -8.617915767691613 -8.074713415341604 -9.996081757305287
21 1 8 -9.873542741105195 -8.583684449521527 -9.522436587628201
22 1 8 -9.019317049981439 -8.217213107962017 -8.486176107540823
23 1 8 -7.882772770126917 -8.51613019277545 -8.222342847096714
24 1 8 -7.547383245951587 -9.582963526124212 -7.85262883832503
25 1 8 -6.64040935668305 -8.436135787559378 -7.643345288737924
26 1 8 -7.117910941693322 -7.253915772546029 -7.555068732710656
27 1 8 -6.518011892982474 -7.604675149090487 -6.789895908337484
28 1 8 -5.258664499543199 -7.5703000383949055 -6.272388213243246
29 1 8 -4.471526719863503 -7.7839915599057035 -7.493528371136033
30 1 8 -4.292907849219385 -7.349477742947173 -8.682191157144501
31 1 8 -4.094077801317455 -5.423607512982599 -9.715443821827986
32 1 8 -3.8751468745890914 -5.654725150388631 -10.753639576141177
33 1 8 -1.9641349354429862 -6.0873146917141385 -10.007172908474514
34 1 8 -2.086158707510735 -5.666656184386535 -8.632880396941202
35 1 8 -0.8082991871434901 -5.922151356845141 -8.87662097614168
36 1 8 -0.17227593543473355 -7.140787275084488 -9.135570295637292
37 1 7 0.5128061524329778 -7.524923530658032 -10.245654270661674
38 1 7 -0.1507118059995157 -6.584984216413896 -11.138848074674522
39 1 7 -1.414131929999337 -7.064421638594059 -10.565214518988803
40 1 7 -2.789115851492335 -7.424965666221035 -10.570860174636385
41 1 7 -3.4715983277342386 -6.52704452243341 -9.845085804411937
42 1 7 -3.5091880340689925 -6.784459401092917 -11.152810927918924
43 1 7 -4.150660110006714 -6.8290846502595235 -12.397611662574759
44 1 7 -4.34359232208632 -6.844605299604103 -13.851269574000662
45 1 7 -3.2834583336166414 -5.647271730480206 -13.213412709303466
46 1 7 -2.2786601425369053 -5.005085284582275 -14.879209039201907
47 1 7 -0.8727836786238186 -3.9133936694543823 -14.440554078568463
48 1 7 -0.874283098210513 -2.1686272934521837 -13.746747814613
49 1 7 -1.8592104793699675 -1.3687956370179668 -13.618906748288328
50 2 8 0.6754846273278495 -1.51126101518834 -2.90440121036626
51 2 8 0.5830610235404345 -1.5891702092125457 -1.411692862403358
52 2 8 0.7185626806824302 -2.9272784439441715 -0.7790280335315545
53 2 8 1.6863449633321643 -3.5006452515373407 -0.38202974315335175
54 2 8 1.3649203027859513 -4.833520683280392 -0.2984277814983887
55 2 8 0.22586997542730686 -5.234476616275677 -0.2529541195098659
56 2 8 1.2363105387547042 -6.253280982946441 1.094734778312178
57 2 8 -0.04510691259425223 -5.493633423026087 0.8047868383261659
58 2 8 0.5496089835294751 -5.889867418105416 2.1093562365026237
59 2 8 -0.11925071145004587 -5.664739170561962 3.7271050182042034
60 2 8 -0.3988329947642275 -4.977066776511717 4.7034886835482945
61 2 8 -1.611973593194069 -3.7036031195591232 5.580675375075987
62 2 8 -1.0190778174174207 -2.9165311090824617 5.022716753181607
1007 35 4 -2.503018217522219 -4.925123220950058 4.024137115594179
64 26 8 -0.9010015430971314 -4.541685903675661 2.691631281226024
65 26 8 -1.4483378154671742 -5.489660279843624 2.0687164301767758
66 26 8 -1.9133968792242082 -4.622119184890572 3.241172600455113
67 26 8 -2.9191301644233674 -4.973517785328964 2.788904136632282
68 26 8 -2.694844892060646 -3.5464462061486013 2.5402580584304717
69 26 8 -2.675140269711414 -3.543168499722151 3.699206141113396
70 26 8 -3.0049823951896175 -2.756053492705395 5.117538187190479
71 26 8 -1.8683337586853583 -1.3761310428966005 4.783815740724914
72 26 8 -1.197909693904838 0.23013220934006212 4.9481691139574036
1009 35 10 -2.3851068968482996 0.5391551529943152 3.564663528760359
74 26 8 -1.7215417262357353 -0.6966280689710753 3.165071989603667
75 26 8 -3.0341104283672635 -0.9237543806197863 2.376354133155776
76 26 8 -3.624643223721112 0.3917320647616066 1.968359184301358
77 26 8 -3.9396102173164733 1.8767202043180273 2.2340268861072268
78 26 8 -4.87325628317149 2.4987917717916512 2.0306235720751817
79 26 8 -4.849808423185636 0.4994496060205556 2.7616694570839444
1017 35 10 -4.0226433816568505 0.5780426254621475 3.7202509637351158
81 26 8 -3.539224810374458 1.5845309666865688 3.4780306034828414
82 26 8 -3.526127987565977 2.6632604632917043 2.6801754561780196
83 26 8 -2.8067177172785405 3.5018065166969943 3.0303247479146798
84 26 8 -1.7526846863344805 3.520011255242022 2.7701049818517167
85 26 8 -2.14904394450829 1.9924029468013815 3.470493768230842
86 26 7 -1.2565844293600938 2.4086876325087307 2.996726289523425
87 26 7 -0.6685228198087116 1.1498688732018447 2.2539558187995192
88 26 7 -0.49399991976166513 -0.5987036109152608 2.4256055603734414
89 26 7 0.16291003151057684 -2.0260694405520154 2.3888024115903277
90 26 7 0.6323346723417682 -1.4969517601155558 1.4957061148894741
91 26 7 0.26335905177943725 0.2723697874161694 1.1969747136875724
92 26 7 1.3308372857162196 0.5508514321452203 -0.03315458733969803
93 26 7 -0.6248080662441478 1.0947113591391164 0.738544221569162
94 26 7 -0.7568091528003014 0.1630502685543825 0.43572684966521835
95 26 7 -0.5048445306107081 0.35014639195956104 -0.5991725787844773
96 26 7 -1.7304910900340218 -0.20639116196369142 -1.2658602768977623
97 26 7 -0.6267646471327448 -1.6607323556392695 -1.2382242055222665
98 26 7 -1.33007722939342 -2.5746620524405226 -0.4591219573831034
99 3 8 -0.5541504227629627 -7.972963004436772 -0.3304257896782623
100 3 8 -0.8513785787146583 -8.529871464988235 0.8514040277174957
101 3 8 -1.5896823535246916 -8.456014224290367 1.8463433320134854
102 3 8 -1.3220947397995402 -7.171919718720613 1.219688817752503
103 3 8 -2.8622087137171226 -7.44690319395243 2.297234557052346
104 3 8 -2.612154698824978 -6.35383711083779 1.6566306734666867
105 3 8 -2.6123643465371873 -7.127153193202527 0.12869605546374177
106 3 8 -3.4459265256067018 -7.005321593017183 -1.14314442774523
107 3 8 -3.024731444482962 -7.660372756324177 -2.2176103566035663
108 3 8 -4.167371094071059 -8.091407904136492 -2.1417294641576907
109 3 8 -4.472725487324945 -9.586555839263237 -1.804087187371879
110 3 8 -5.175314429621675 -8.639170931720063 -1.6507651059893502
111 3 8 -5.090069083305195 -9.879856380910416 -0.8035808913382214
112 3 8 -4.656320882708356 -10.50274121515593 0.4935360269139611
113 3 8 -5.705115147537499 -11.343164865987603 0.7658807976488096
1024 35 10 -5.524739055492064 -12.545584462899075 0.09108851514996133
115 3 8 -4.601494969029775 -11.684382180660087 1.6787578529716773
116 3 8 -3.803616893436849 -10.302971636924932 1.320605094568539
117 3 8 -3.2143053336972263 -9.255513458186092 0.7104293223912151
118 3 8 -4.672067869198559 -8.147901265252326 0.5309046478497801
119 3 8 -5.32700796448461 -8.55120487137887 1.731434810451553
120 3 8 -4.645841403568131 -8.595452773865794 2.999462057712749
121 3 8 -3.827615941430724 -6.662157688678928 2.867988750388
122 3 8 -4.4565112922752075 -7.204098720719515 4.462056358796747
123 3 8 -3.884876063714637 -8.059693886653296 5.366861140733996
124 3 8 -2.9217015687631673 -8.305417796199421 6.406902505912084
125 3 8 -2.8781918920447236 -8.359510959560076 4.597756367678861
126 3 8 -3.278221158279541 -8.370973569837732 3.2299406530039394
127 3 8 -2.2936258155678955 -9.819431748492837 2.4756582490212273
128 3 8 -3.010126493945721 -10.974736726194525 3.629948804635812
129 3 8 -3.503071247326052 -11.617067545614491 2.802701763737873
130 3 8 -4.865686021380521 -12.586420683820336 2.882998632171232
131 3 8 -6.157815349906443 -13.012729237936458 3.715849488128009
132 3 8 -7.024408780265017 -13.741875919347912 3.919951254242256
133 3 8 -6.9499918017697535 -14.497714935284915 2.6623960780628866
134 3 8 -6.177708156631993 -15.047637689363905 1.1291452547651353
1025 35 9 -4.533908789559238 -15.119434818219526 1.3587953278549243
136 3 7 -4.8425448632762045 -16.365759474093142 1.9601939981184704
137 3 7 -5.2251163801890925 -16.20506239775761 0.5510556909396076
138 3 7 -6.1860245811315 -17.27199689778663 0.30892145285039746
139 3 7 -4.684869020546421 -17.510811230242304 -1.4051989175111532
140 3 7 -4.118648139242483 -16.509324625777534 -0.7623414272583566
141 3 7 -2.4737497294900423 -15.632896755822987 0.16217838003146148
142 3 7 -2.010653235670574 -15.323172266129115 1.0120334113051819
143 3 7 -3.011532573431431 -15.497118387125909 2.0934208304002615
144 3 7 -2.2063108392179354 -14.470997467327548 3.565416709725684
145 3 7 -4.16276053505092 -14.520238137945404 3.0342685068523583
146 3 7 -3.419204264115217 -13.282826795646157 3.553057629761411
147 3 7 -4.301666802282833 -12.302602988085011 4.124774723147638
148 4 8 -0.4756654667952364 11.110702325970271 15.81069423757446
149 4 8 -1.1055963924770655 11.675469154196149 16.873820391371652
150 4 8 -0.4867072184482401 11.01907697304927 18.363629709469393
151 4 8 -1.3809917842707795 10.460575339501682 18.299973264502352
152 4 8 -0.7921077469876627 9.863444962542408 17.672797911802636
153 4 8 -1.5487935694666561 10.19632318026459 16.62542308108084
154 4 8 -2.926898689367201 11.015723190152773 17.47029237189323
155 4 8 -3.043254845406319 10.044882025139302 18.035342372018086
156 4 8 -3.038570575778377 8.917060477273584 17.446790720843534
157 4 8 -3.9107276594523723 7.727745247900304 16.974114179978287
158 4 8 -4.494470130026807 7.100675317940156 16.60486678440303
159 4 8 -3.3122828757319946 6.354051939835605 17.18223256768507
160 4 8 -3.476629674610113 6.527201688496971 18.67522081760328
161 4 8 -2.227021691935076 5.618001745419565 20.04085978504497
162 4 8 -2.4182313850937898 6.564057771546608 20.578783012367023
163 4 8 -3.7741145449213738 5.793031521775894 21.257740889451256
164 4 8 -4.813472363953426 6.116016514260206 22.532740973593867
165 4 8 -5.053722171572225 6.742426267263006 21.58865389368157
166 4 8 -4.705095089665767 8.269158017158496 21.727778638640192
167 4 8 -4.774143113891532 7.913333548628591 22.853995799089322
168 4 8 -6.2507359323382925 7.082840623134895 22.589299568859058
169 4 8 -5.476817316125788 6.803688734410866 23.538629140911073
170 4 8 -6.201947444554205 5.672624930441169 24.572686580200653
171 4 8 -5.853321352715242 4.587894572748748 25.518969509442368
172 4 8 -5.139811761386103 4.305331394851164 24.40418136255334
173 4 8 -3.654514236647305 3.8866560967109787 25.539312810664494
174 4 8 -3.7381129335729035 2.175160395960672 25.93735252528211
175 4 8 -3.3233232744742827 1.1426510910750751 24.352353152969805
176 4 8 -3.110192769846666 -0.45926787799498203 24.549061284168747
177 4 8 -3.8143112907502816 -1.0036806747754243 25.41133616552297
178 4 8 -3.2588463163774612 -0.2739230388845074 26.653359100366206
179 4 8 -4.152558134992725 0.15805225342221355 27.073470479163525
180 4 8 -4.476645556801271 0.18052599871785072 28.440606400103306
181 4 8 -3.939760163518015 -1.1396579788392223 27.549914670115324
182 4 8 -3.105540922022901 -0.06674011191526044 27.93701088839322
183 4 8 -0.945004920685639 -0.8057282304654101 27.70074834041382
184 4 7 -0.23111187559989868 -0.5513925737182915 26.983629044536794
1028 35 9 1.3475654514801405 -0.8853197971966783 27.45666219646632
1023 35 9 0.7660147230143994 -2.0633772292344643 26.900505972730933
187 4 7 -0.5440297309557651 -1.9053258531674 26.522591785129844
188 4 7 -1.3747421239598412 -2.8675652096421866 25.44896057000323
189 4 7 -1.6193706240494994 -2.9454076686732837 24.41550780290079
190 4 7 -2.8073471891196227 -2.60433768031275 23.548043857653777
191 4 7 -1.1844015295388208 -2.4989577490088033 22.252588732486284
192 4 7 -1.880792621370622 -4.173828678797605 22.231638447855197
193 4 7 -1.3509674837056367 -5.300256907476344 21.553653521313528
194 4 7 -0.5729369685613248 -4.716236230518589 22.761360962655786
195 4 7 -1.7556442959767533 -5.746446675025606 22.53845829794131
196 4 7 -0.8631367605944643 -6.601318023425841 22.625833605961272
197 5 8 0.5912138383324705 -4.420435509975322 13.211716802747473
198 5 8 -0.3489183222471696 -5.408614617640992 13.414705272933826
199 5 8 -1.2490645569262382 -4.077724493047425 14.975281120413873
200 5 8 0.2322071417762584 -3.5927362769171918 13.788759880629584
201 5 8 1.5965459150485108 -4.323251920517659 14.00068086470315
202 5 8 1.6392922009451254 -5.04308605907425 14.819772840424822
203 5 8 3.06349947911138 -4.221986121297845 15.030241706386189
204 5 8 2.7250197088230186 -3.9233579312191877 16.038940379184563
205 5 8 2.8471368614582016 -2.917251299772962 16.773686801941793
206 5 8 3.21179876788318 -0.5605170081711336 17.00413645791346
207 5 8 4.5224758473501545 -1.6067720505938388 16.310655569468423
208 5 8 5.454367939393136 -1.958512482039325 17.271033299878702
209 5 8 5.345628403586099 -2.78340858792869 15.623639520312688
210 5 8 6.197938578432485 -3.376325623204066 15.700728430712967
211 5 8 6.2787364713786715 -2.4031734942258094 15.038405797872803
212 5 8 7.474457886988251 -2.824865865995801 14.359397290512147
213 5 8 6.8642929651656575 -1.025240644217278 13.17864011981506
214 5 8 5.642054123401078 -0.24867686943163436 12.356360407684997
215 5 8 6.974413804955375 0.6340906062280253 11.639334026083679
1019 35 10 7.654696417475702 1.5850687359933626 11.757021334608437
217 5 8 6.550849964665845 2.0306468122596506 11.33272642617201
218 5 8 6.570632941685914 1.0666723160001477 9.970956486580768
219 5 8 7.422813457163814 1.990853187829561 9.321357614115284
220 5 8 7.546925821112726 0.8229506804862649 9.03020508377484
221 5 8 8.25105415649763 -1.012458282024183 8.695286351904738
222 5 8 7.174519864948517 -1.3517262487527044 9.566154601001928
223 5 8 7.003068731620511 -0.21321487665217936 8.700624620711869
224 5 8 6.899382940676273 -0.12665788155691604 7.19195789348725
225 5 8 7.89260233537337 0.6597074058161461 6.53675545655598
226 5 8 8.43213370044653 1.0215810102716723 4.962716703894638
227 5 8 7.391241313434756 2.100366139473754 4.350756237447792
228 5 8 8.444358799573912 2.9995831596950833 3.602854040123706
229 5 8 8.370984445693198 1.8679570874667608 3.9386782403587897
230 5 8 9.354915413595615 1.371801173493377 4.170318764310769
231 5 8 8.697937494600255 -0.3755959740128883 3.4589187966222847
232 5 8 8.059518105913577 -1.2639397494424984 2.775853648589131
233 5 7 9.138388097263284 -1.3810687187137645 2.8718625819389816
234 5 7 9.654700465478909 -2.4491548749974963 2.123312210464761
235 5 7 7.7118056448926895 -2.8315822747049437 0.7084635421900735
236 5 7 8.099313607907032 -4.619668925532034 0.02884596718137744
237 5 7 8.135799706442517 -4.080128437019852 1.3015465822134493
238 5 7 7.269108192823137 -4.677852331238363 2.2281545173886648
239 5 7 5.886402312208148 -3.9647643466710716 0.959357298779543
240 5 7 5.5357001048696945 -4.146874918930951 2.1035609138540603
241 5 7 5.508577321520861 -2.5966159514462763 1.4257778262726084
242 5 7 5.807987397872402 -2.8945862776835862 3.6203583558304286
243 5 7 6.301663984326066 -3.0735361665260217 4.726518161691393
244 5 7 6.370175390466257 -1.5352841161099402 3.4572120218472273
245 5 7 5.304706665909554 -1.5164854087355337 4.1709628241187175
246 6 8 -1.50356463587629 2.230356509141497 4.711393225324913
247 6 8 -1.6005873578055845 3.4995000685667517 5.092800114064906
248 6 8 -3.210759059457864 3.583381840549008 5.30179912407376
249 6 8 -3.6568876929011047 3.6940664656910047 3.4635973167941576
250 6 8 -2.2748300058096196 4.4503923751198355 3.185738584401935
251 6 8 -1.424124398376791 3.990652170141028 3.826913432030994
252 6 8 -0.698631167768134 3.1326944117945996 3.714431737486026
253 6 8 -0.41393185488167406 3.9652077904913017 4.293829278687609
254 6 8 -0.6551221280119158 3.721093858363302 6.254123823797359
255 6 8 -2.722090831604229 3.254734431407736 6.43864444257287
256 6 8 -3.376562551205733 4.483671132982444 6.9743334719562045
257 6 8 -3.0639512401208364 5.815393999106659 6.727840198851731
258 6 8 -2.686442479129583 5.61001421767874 8.029002382424869
259 6 8 -3.730428675817227 5.797764003673697 8.13399769665237
260 6 8 -5.1021076469987605 5.8326626528354835 9.57206359538774
261 6 8 -4.40954523342639 5.159850275672042 8.84235022614326
262 6 8 -3.0963336912981827 4.916818631781317 9.536028760280304
263 6 8 -2.369551391316509 3.9841466924692157 10.494834275352511
264 6 8 -3.394902251683737 3.162238511722656 9.951655672356557
265 6 8 -3.1300939929264513 2.1371832541701123 9.02826837486272
266 6 8 -1.3927449482700385 1.3832603178889684 9.946644716454818
267 6 8 -2.328632951413429 1.1424338959937759 10.746957083064475
268 6 8 -3.574592184771187 0.42029147014405766 11.420454195142124
269 6 8 -3.2519215383724918 -0.11024742912841905 10.517684827524164
270 6 8 -2.488108886307573 -0.3795402625881418 11.528475959851006
271 6 8 -2.8662668822200383 -2.02602243986506 12.077109324687983
272 6 8 -2.8852598944297725 -3.058625248356481 12.492207179341664
273 6 8 -3.8138098443559802 -3.649635313356347 12.706778736090227
274 6 8 -4.093866554694021 -4.08088958413025 11.252419480181446
275 6 8 -3.234098747771544 -3.6650934056005653 10.239664491974848
276 6 8 -4.679236673635661 -2.996284938418998 9.217681677102066
277 6 8 -3.241795221557752 -2.676459214106887 9.08378406141023
1012 35 10 -3.5447730443014436 -2.13619446692909 7.792478248861503
1026 35 10 -4.8363004635058635 -0.9234231629389328 7.730138193703538
280 6 8 -5.295185325056449 -2.1741343012343632 7.031413521126779
281 6 8 -5.846218930812585 -2.528330954070774 8.1364378212157
282 6 7 -4.951857738105021 -3.17275635892994 7.218664874153741
283 6 7 -4.083135761090637 -3.797689527448705 7.612174597630579
284 6 7 -5.3795853944524294 -3.9902044938109915 6.2573658222888975
285 6 7 -6.756131913026119 -3.345916567650104 6.446541375382656
286 6 7 -6.456176674181765 -4.415914068757707 6.805890965724335
287 6 7 -6.040037423851035 -5.6140633401297 5.772189388367763
288 6 7 -6.335276970499576 -4.623359399290723 5.508092490444873
289 6 7 -7.655507280458245 -5.1070445106596445 5.945212206873124
290 6 7 -9.332973788639775 -5.868439847393796 6.076475242352835
291 6 7 -8.500072924566762 -5.787614039688823 4.8175177704540575
292 6 7 -9.64838158142094 -5.076619230217797 5.268090045006358
293 6 7 -8.59402805188712 -3.9287822910291186 5.460814975177467
294 6 7 -8.211388297893487 -3.7709531200777766 4.205467079430501
295 7 8 3.0786904222333247 13.275688404244882 6.687992426519454
296 7 8 4.071472669018603 13.141662817297018 7.728201228631559
297 7 8 3.413798679967621 13.323110906424592 8.65479515204848
298 7 8 2.322171257511746 13.118559439066747 8.244747224619696
299 7 8 0.38850583302906877 12.51874321266868 8.102136412994435
300 7 8 0.8765409432858096 12.91546888206068 7.000324384376897
301 7 8 1.212868508966095 14.157966589307451 8.484845276683673
302 7 8 2.3052941050800952 15.083316955176874 10.224134409222238
303 7 8 1.3723764666266471 14.630060367360183 11.480885240156255
304 7 8 -0.4658548687441741 14.076588309540941 11.239007927156582
305 7 8 0.8490795491673302 13.158451639838441 11.605153268898238
306 7 8 0.34553198673615126 12.100162288011642 11.276929920383678
307 7 8 1.5950806645581264 11.51065188348435 11.179832559671793
308 7 8 3.138263140963463 10.815519476439817 11.084579033601335
309 7 8 3.355998685510494 9.771465376255884 10.898413737274954
310 7 8 4.278351125503351 9.876271458682506 9.49895227929609
311 7 8 4.751535902319483 10.193215118975887 8.00209076522648
1011 35 10 4.450517377817672 9.26199953530144 8.188841085672577
313 7 8 4.300850718779325 8.306932241842564 8.897363015204023
314 7 8 4.001078605773783 7.4800775605965875 8.302509894792921
315 7 8 3.2406422562184303 8.01976310623963 8.946123145942625
316 7 8 3.046908966966175 6.938627937748703 10.000674597699406
317 7 8 3.060333576178313 5.405371556982401 9.25338353719198
318 7 8 2.912096082087762 4.061477184774391 7.909974417850694
319 7 8 2.028660393249045 3.241387276858168 6.508189867541721
320 7 8 1.5430675781579233 2.4270409421296484 5.478031229451003
321 7 8 2.7179747526453535 1.363229139360041 6.109800049679024
322 7 8 1.0374475805842276 1.8342419410833675 6.392174489545355
323 7 8 0.24795729852151424 2.353403342719714 7.097017981962095
324 7 8 0.6595941444261706 3.001274497193212 5.9034029890512985
325 7 8 -0.039397877196771125 2.9643013324950864 7.913786230274225
326 7 8 0.36129534782835127 4.041901296054974 8.784797297919498
327 7 8 0.8719203693619092 5.124025705160011 9.308755894886811
328 7 8 -0.42567583563224703 4.8105457612615785 9.026031965596227
329 7 8 -0.5476950261465895 3.1076995981011772 8.991062624256777
330 7 8 0.23244131264927737 2.9670391313802873 9.979556266901266
331 7 7 0.5340986940981236 1.8099241605769356 10.583509335182441
332 7 7 -0.3145830608216593 0.7800911731451092 10.218608685553166
333 7 7 -0.9374665032422689 0.987332388574276 11.136698530124447
334 7 7 0.7050394772247301 1.67743498571319 12.226266147261807
335 7 7 -0.1489752501472141 1.4208468521919222 12.881752359075533
336 7 7 1.454941567399291 1.946829097522753 13.666449719188138
337 7 7 1.6838176942067422 3.386351630369406 12.833152837150763
338 7 7 1.6137010133658816 4.8332676926826466 12.417086503098897
339 7 7 0.462176852418627 5.384061957603585 13.07175270819981
340 7 7 0.0023794765244379876 4.327251025457604 15.191365415676122
341 7 7 1.8499369745332808 4.816827926234232 15.798430317496454
342 7 7 2.0394744114369607 5.801965226363686 16.54207502040378
343 7 7 2.711501310107792 5.328056299428089 17.39743272284711
344 8 8 6.752364734944344 18.536571162275592 -9.49581585596678
345 8 8 5.642313702647503 18.596486473975148 -8.426009291068281
346 8 8 5.890244569464967 17.043470370472455 -7.53065385976094
347 8 8 5.471662576539405 15.928928686558697 -8.95906555954039
348 8 8 6.413486933771157 17.866081503499537 -8.585392918883661
349 8 8 6.9999459713757295 17.35674150236561 -9.424552790299686
350 8 8 7.533614149677407 15.892374166651566 -8.154499586958028
351 8 8 7.002872884976922 15.98928513734711 -9.615262643878511
352 8 8 6.402095756124158 17.10509187042157 -10.20233444860058
353 8 8 6.346920247253464 16.410797882958253 -12.05358150376168
354 8 8 6.870657758812071 14.835724450570885 -11.403084094047275
355 8 8 7.472209686850797 13.917812583708779 -11.049753064773151
356 8 8 7.360637595113255 14.655371085752659 -12.78155356694771
357 8 8 8.263527347940814 14.06674453340224 -12.520811427791289
358 8 8 8.683621363149202 12.845965529679015 -11.858538536828188
359 8 8 9.164435850549003 11.545443329155308 -10.903552344767986
360 8 8 10.330931891729891 11.19442132212546 -11.778478606491936
361 8 8 10.812387632307127 9.179733288291688 -11.666236002528763
362 8 8 12.057492192573102 8.984879236005996 -11.790199163684889
363 8 8 11.432399266656867 8.75073347815237 -12.949307695268462
364 8 8 11.80533110215466 6.991236881624547 -12.846368365738982
365 8 8 11.152301332504402 6.054529130962486 -12.627358773884785
366 8 8 10.02587941790555 4.954906626765399 -12.846715833035521
367 8 8 8.772266822962386 3.6159713447626523 -13.409523391911236
368 8 8 8.279031963349954 3.3709161447106903 -14.424839603391462
369 8 8 7.4726239864949235 4.6803172812447915 -14.214081944708857
370 8 8 8.389530675346636 5.03634188827923 -15.563226934726517
371 8 8 9.112974681126225 5.543841436157099 -17.190961215353557
372 8 8 10.502236885847116 4.815606948342475 -16.7528837897752
373 8 8 11.75134442326523 4.964595131889166 -16.46179232792032
374 8 8 12.11760198063337 3.5488293871481 -16.530888810377455
375 8 8 12.450750169480871 1.9711547946104615 -17.24163145344313
376 8 8 12.278996022767727 3.5996342872019462 -18.357873464676615
377 8 8 11.726933175057068 4.376288187979245 -19.69615298739163
378 8 8 12.140421847147621 2.8956404732245837 -19.665106103906137
379 8 8 12.530155349431734 2.225132931282035 -18.83577646254454
380 8 7 13.895416996439097 1.6241778885829665 -18.84669463970354
381 8 7 12.906469447624003 0.6136400893702133 -17.77962908225194
382 8 7 12.736818693434545 -0.4110351542860789 -18.888698544258823
383 8 7 13.629004297479755 -0.6886866686586084 -19.55702075554369
384 8 7 14.45099887101752 -1.3257531146076855 -20.12506232221528
385 8 7 14.174994516511948 -1.1228758488046167 -21.331094745058202
386 8 7 14.306042340308435 -0.5098367467378091 -23.50818500942977
387 8 7 15.040424828410542 0.7356970348744862 -22.16574317543899
388 8 7 15.691389474847021 -0.4855301982369202 -20.962001854234263
389 8 7 16.609651891303972 -1.540869199814444 -21.53313131877435
390 8 7 17.233524053951182 -0.6459047142990572 -21.249726685925772
391 8 7 16.866905372962442 1.2537367925427674 -20.832373396648325
392 8 7 16.679894540724398 1.0275051144815806 -19.517869482064576
393 9 8 -4.328937736151058 -3.680554358993305 -16.27157521475525
394 9 8 -5.039529626597444 -5.240785263296708 -14.094291215111388
395 9 8 -6.7055990543872195 -4.167175482243734 -14.077193903543643
396 9 8 -5.759919838765183 -4.007590641539317 -14.63207085404457
397 9 8 -6.277437341764468 -2.5293409951279067 -14.06801532801592
398 9 8 -8.094919752543246 -2.771992964445748 -13.824891776307254
399 9 8 -8.378916175644044 -2.4944117423533836 -12.578968919767052
400 9 8 -7.462778202267154 -1.9734564776122188 -13.191969431992948
401 9 8 -6.703239754114502 -1.472607973964776 -12.345255670188743
402 9 8 -6.604545197291855 -0.6301068973163201 -13.157880751612247
403 9 8 -5.267343228111835 -0.7213783820112131 -13.3094521621616
404 9 8 -5.861269467250691 0.30480740510043713 -12.024104722718922
405 9 8 -5.28062807469378 1.1545663946669746 -11.3171644004626
406 9 8 -6.586826441131742 0.7576026199377976 -11.347586556593907
407 9 8 -6.904155002327203 2.1226921954400475 -10.575951616068505
408 9 8 -6.455844290965767 2.0470871774093085 -9.247872381868742
1010 35 4 -5.553198794462916 1.385274258227993 -9.406432791628266
1022 35 10 -6.064683428020747 0.9254496949219505 -8.322962669210547
1016 35 8 -4.616844167970913 1.4048110822238096 -7.918414215299198
1029 35 10 -5.07221824847488 -0.2066832880310075 -7.35961620104362
413 30 8 -3.7000245326625505 -0.7572080469759204 -8.909703351348664
414 30 8 -5.28546122096998 -1.191954559979319 -8.292247203933723
415 30 8 -6.361441565507316 -1.0988748226066867 -7.908597331885493
416 30 8 -7.0495039471632 -1.0844685624347463 -6.322088032503392
1021 35 8 -6.535418979936845 0.963674221705676 -6.264885203172403
418 32 8 -7.318007791935602 0.34376308708369807 -6.61461210790724
419 32 8 -8.557365259828414 0.18673475107003817 -6.6096424899280475
420 32 8 -9.772167987601065 -1.4790973421934839 -6.33003058166068
421 32 8 -10.64540585892452 -1.1654592306540088 -5.587892252137326
422 32 8 -12.1968141963799 -1.6656595560332075 -5.554057528693987
423 32 8 -10.58102558090471 -2.821124355493084 -5.537456252388533
424 32 8 -11.275151754885417 -3.7500107982690696 -6.675628066199532
425 32 8 -11.75863928897234 -4.581768215358301 -8.060344981625809
426 32 8 -11.219452913930182 -5.324268887425357 -7.4445009060864455
427 32 8 -12.00867352016897 -6.356679308835665 -7.140583523810311
428 32 8 -12.538602003263115 -5.126391231959175 -7.353209178285988
429 32 7 -12.337564825252889 -5.61416827987238 -8.865995494364478
430 32 7 -13.112275111658962 -4.390662702063058 -8.693943607299886
431 32 7 -13.978505737317587 -5.213582073269046 -7.758768666994844
432 32 7 -14.220672876467418 -4.72759709827537 -5.663202746845747
433 32 7 -14.59510992260317 -6.064064590801171 -5.489060586872418
434 32 7 -14.475337673985283 -7.247360049525712 -5.910787205389053
435 32 7 -13.830418045092708 -8.585500063684453 -6.376302267114789
436 32 7 -14.812513126181006 -6.838818798396739 -7.820053277689512
437 32 7 -14.881488069136548 -8.261721717877952 -7.909316887981791
438 32 7 -15.975308603156675 -7.851170772328861 -8.186648619567174
439 32 7 -16.882746889988745 -8.32096784436473 -7.035285377191409
440 32 7 -16.280397510913147 -8.732101106351077 -5.969431818870723
441 32 7 -15.957522980286457 -6.925469057895099 -6.1254031212939575
442 10 8 -0.02988842977588084 15.63561592878523 -0.8604989032318315
443 10 8 -0.6489048401135462 16.482125822599407 -0.8546404369345203
444 10 8 0.3590734059899663 16.640028906762268 -1.1806861559264248
445 10 8 -1.4921989017328536 16.90846663172786 -0.2882596879592245
446 10 8 -2.0530459900734583 14.747685267048695 -0.6736283842814674
447 10 8 -2.5543962690354394 14.305225571995248 -1.8812818504165465
448 10 8 -3.730355956148107 15.002607599840399 -0.8561141399852745
449 10 8 -3.544895785050301 13.713581087505103 -0.5505403866323859
450 10 8 -2.7182582123646593 12.671804854687075 -1.006533353969335
451 10 8 -2.1826946267582246 12.67931687200398 -1.9465632787813802
452 10 8 -2.204146519978941 11.751610401836501 -3.3834317153515214
453 10 8 -3.242403272835999 10.40299930746089 -2.8685945610901307
454 10 8 -3.5955670953250745 10.161883790816827 -1.690353746163644
455 10 8 -2.5986472479170435 10.034774014471042 -0.5766365103715354
1015 35 10 -2.0477344045329584 8.957798490594845 -1.116861153457858
457 10 8 -2.2302571144274776 9.484172899284372 -2.229409545573995
458 10 8 -1.4824320677935938 10.248582103929678 -2.907848932896575