# Generated from readdy-to-lammps

1005 atoms
726 bonds

10 atom types
1 bond types

-30.0 30.0 xlo xhi
-30.0 30.0 ylo yhi
-30.0 30.0 zlo zhi

Masses

1 1.0
2 1.0
3 1.0
4 1.0
5 1.0
6 1.0
7 1.0
8 1.0
9 1.0
10 1.0

Atoms

1 1 8 -15.91453145687508 -9.72189301078732 -11.903937580267224
2 1 8 -15.985561565816605 -8.86769720970413 -14.362031315568522
3 1 8 -15.901801593942675 -9.339571905533926 -15.27684070466251
4 1 8 -14.670182724343396 -8.846961329921808 -14.548378248957368
5 1 8 -12.92169897777444 -9.205018148986145 -14.661937919444576
6 1 8 -12.06966155970768 -7.679617445636184 -15.053723997204298
7 1 8 -12.873752776666757 -6.452955374578682 -14.22175020920536
8 1 8 -11.868205494472118 -5.488096350559328 -13.622136086168474
9 1 8 -12.023710560014347 -5.003620457002679 -11.370067496343113
10 1 8 -11.873600253254361 -5.5556393606249115 -10.282489175924766
11 1 8 -11.125059905638308 -3.3410695350604573 -10.994247063172464
12 1 8 -10.03295316497823 -4.221330310454214 -10.7371898608243
13 1 8 -9.010248279682068 -5.346259495143074 -10.653055619860405
14 1 8 -7.983842552126677 -5.701371288399964 -11.859631959426753
15 1 8 -8.394750922650411 -5.39248664629642 -13.230943288130014
16 1 8 -6.8766444486241705 -6.110034987600462 -12.929475939067455
17 1 8 -6.480469035878867 -5.9998146356114335 -11.937070447930589
18 1 8 -7.7155549121117835 -7.384143931192254 -11.733105873863293
19 1 8 -7.540278342909203 -6.942420204070069 -10.23768438536937
20 1 8 -8.743823354165212 -8.265751303398051 -10.400794026692067
21 1 8 -9.221820644749295 -9.637385663634713 -9.719497818525172
22 1 8 -8.047194617827206 -9.477183557233566 -10.436189553681702
23 1 8 -7.646532935555406 -8.038229874183338 -9.439468619496564
24 1 8 -7.673809643449044 -7.864749669501711 -7.609664973470489
25 1 8 -7.058582576619845 -7.7904976704035995 -6.5103320998707845
26 1 8 -6.384427664427313 -6.215841154314161 -7.179966220675451
27 1 8 -6.0283339260065905 -7.181415626467213 -6.8941711379770805
28 1 8 -4.967330695800817 -6.469433456796499 -7.417742661059746
29 1 8 -5.607245076051109 -6.896054768526957 -8.361718853737706
30 1 8 -4.4972356102885085 -7.748168667376632 -9.502750752824829
31 1 8 -3.982027662233466 -6.816567023470176 -9.398567762825593
32 1 8 -4.1829507915241555 -5.575259134191391 -9.689803014312666
33 1 8 -2.7142702711744837 -5.694952256357176 -9.961709385508854
34 1 8 -2.3894401004504653 -5.9734291914652395 -8.50390312015557
35 1 8 -1.284111370433175 -5.915610694165928 -7.914412384608999
36 1 8 -0.39574697260355163 -6.780586975451252 -9.487935125937419
37 1 7 -0.35113975266715525 -7.576083819394926 -10.534647250976645
38 1 7 -1.268904978366502 -7.68386900393533 -11.906389744302176
39 1 7 -1.9442426826013943 -6.325607019394628 -11.991925252071974
40 1 7 -2.444461730397916 -7.740933636890067 -11.945060200074954
41 1 7 -2.4906440334852005 -6.895009779138987 -10.990987182503492
42 1 7 -3.515942540540601 -5.679499884584063 -11.213924856539855
43 1 7 -4.399163644489655 -6.252326822438293 -12.250198195716205
44 1 7 -4.21546394034136 -6.828198470202922 -14.050483743347915
45 1 7 -2.73682328575964 -6.429305280437022 -13.306539179784705
46 1 7 -2.6473803105591607 -5.475352005534479 -13.965384199337521
47 1 7 -2.653047032711889 -4.114966543288512 -13.82735132123709
48 1 7 -0.7785016642078586 -3.129601486730539 -13.65837833045208
49 1 7 -1.1636890806845308 -2.93654726606426 -14.583174973379336
50 2 8 2.090778752179851 -1.1006902784845773 -3.573392916961378
51 2 8 1.1832126510828138 -2.4233289469959574 -2.2917666934639147
52 2 8 2.7404263045960042 -3.0158288702561347 -1.1586934475180406
53 2 8 1.5641193114805063 -3.1231150151573353 -0.9542655788260321
54 2 8 1.7330345054688978 -4.678735654068721 0.054015838274738895
55 2 8 0.7814110792822144 -5.1860869451742655 -0.31909881454729305
56 2 8 1.2081284617871226 -5.822543369126716 0.5444890971281124
57 2 8 0.034133175830154495 -6.03964355133801 0.8304218620596311
58 2 8 -1.1369546701849904 -6.10414656607068 1.64391364261226
59 2 8 -0.37260300346262953 -4.834597297540289 2.7278026378864193
60 2 8 -0.6892208417409764 -5.119562789023278 3.6882285938080113
61 2 8 -2.0762620415486492 -5.021394992966343 4.798713200483894
62 2 8 -0.48908153432504997 -3.2517875376492364 4.055365804079237
1007 30 8 -1.591468687997499 -2.9246540157797494 4.226073464203703
64 27 8 -2.4554197862960505 -2.878465039084355 3.098752177572056
65 27 8 -2.0793143234746476 -4.109583796738749 2.503926416367913
66 27 8 -2.679138863799896 -5.338316761401445 3.5090531837304306
67 27 8 -3.3753661911227137 -5.131536596573243 2.6271004301854357
68 27 8 -2.84168671596414 -3.934805603414454 3.5129703293230334
69 27 8 -3.5455317476296293 -3.188969914626273 4.656682225432923
70 27 8 -2.9659017771641722 -2.1871020300061814 3.9809470902209187
71 27 8 -2.5262120990255448 -1.4554866914672824 4.577380490447443
72 27 8 -1.9656393894632957 -0.5280475091393276 4.7160307242528985
1009 30 10 -2.171155206220965 -1.394738091795312 3.2315838482311796
74 27 8 -2.493114102154826 -0.2413812185562629 2.8164158628584133
75 27 8 -2.4951464228181797 0.23297126758404257 1.8202996824225608
76 27 8 -3.945848696240972 1.5600281820635435 1.7135355436836412
77 27 8 -5.330110568024377 2.0124274697376543 2.3509240351245295
78 27 8 -5.120649056357726 1.9821390971356536 3.6202492102603094
79 27 8 -5.287972978771868 0.8156041260191008 4.235963282036082
80 27 8 -3.950540793921883 -0.10564168767911263 3.908097742893265
81 27 8 -2.9538195515561743 0.8010433181900486 4.2023729551694515
82 27 8 -3.370267899272916 1.8446015507099134 3.0276851245441363
83 27 8 -2.2754564120638676 2.7229288572889385 1.910710821416727
84 27 8 -1.6846507796895247 2.1165927363898653 2.557575443712035
85 27 8 -1.7194485616795796 1.8308718181346075 3.667464369409951
86 27 7 -0.5702927381218617 1.4618592244242947 3.7139458995792127
87 27 7 0.034358769214883 1.078762397220678 2.0054024273188586
88 27 7 -0.5628615134574141 -0.06906567114106435 2.865793098698403
89 27 7 0.27466535452569907 -0.9744255095646195 3.2374272459647644
90 27 7 0.7638334246916494 -1.5153355937101995 1.8376024224967242
91 27 7 1.387113182192886 -0.21976716413485387 0.7118802107957085
92 27 7 0.5670705302292104 0.3776590822674843 -0.277362846464044
93 27 7 -0.32353460171797455 0.7837021526478916 0.7629388719329161
94 27 7 -1.5785704870133777 0.6952158656065068 0.8666948558431927
95 27 7 -1.2425457900501569 -0.16954278302044912 -0.6711978624008421
96 27 7 -2.245673340382554 -0.45878335221283667 -2.0109410365077456
97 27 7 -1.0956929351934481 -1.4060132709732642 -0.904885025537617
98 27 7 -1.201115535033533 -2.699434542734454 -0.4679319505840786
99 3 8 -2.800342004218616 -6.873851902218504 -0.035009498254341145
100 3 8 -1.6766306476545445 -7.034321999375391 0.7204784893160039
101 3 8 -2.7132661311668644 -6.2215021240811526 1.6926241116886374
102 3 8 -2.2355376201466317 -7.170156976821235 2.5802837969212824
103 3 8 -3.4041860301870868 -7.703067091376287 1.760416737998023
104 3 8 -4.071016932044077 -7.360213446647393 1.0429619741871996
105 3 8 -4.715275916642248 -7.871937453587333 -0.5793786897876486
106 3 8 -3.528570138771302 -7.165861248453937 -1.7550436177722781
107 3 8 -2.5702614680744715 -6.8533717033561246 -1.8999029864558366
108 3 8 -2.947192562671232 -8.729008519757436 -2.2717357509762817
109 3 8 -2.4729342659917077 -9.663713718010085 -1.5620182500143942
110 3 8 -3.8078202188470764 -9.955307878198024 -1.719572564561041
111 3 8 -3.72993988019285 -9.553723821562157 -0.01749245449103193
112 3 8 -3.067429402506217 -10.779349659121056 1.009729774396576
113 3 8 -3.967846600640564 -10.686206898694406 0.1561496989044688
114 3 8 -4.492500871167725 -11.646436821238394 -0.9862717919938173
115 3 8 -4.704562911306463 -10.699097921412834 0.9938203999697925
116 3 8 -4.97872475848291 -9.708956276229934 1.2052446031336634
117 3 8 -3.460216438216956 -9.860657503055638 1.511053633190004
118 3 8 -4.186644414942492 -9.105727686196037 0.7696334168110943
119 3 8 -5.531800087827497 -8.689838587292 1.8700547307138067
120 3 8 -3.892885697455655 -8.651492596029097 3.159349979783174
121 3 8 -4.305486671687949 -7.662743380340062 4.267267043299645
122 3 8 -4.62165373421875 -9.02799388993187 4.533736055610675
123 3 8 -4.325991368501845 -7.998196959784175 6.119314635473158
124 3 8 -2.5827353921481957 -8.60427233543115 5.215976362781452
125 3 8 -1.3807989754182877 -8.436610429223816 3.2014626138484084
126 3 8 -2.374970550841153 -9.504850830068749 1.8672147668382293
127 3 8 -2.2147162133158305 -10.165399637748227 3.3386149539421064
128 3 8 -2.5736559019156684 -9.54144790157763 4.084515422340055
129 3 8 -2.9083025986927984 -11.177939577967269 4.434048519109726
130 3 8 -4.056185189571845 -11.87448328879555 3.8100220574323957
131 3 8 -4.686342526687023 -13.04367406046212 2.8623953615284945
132 3 8 -5.878282306803626 -13.165472348930535 1.847647545108142
133 3 8 -5.708313810030839 -13.320256465117964 3.0082316701059306
134 3 8 -5.535797274875808 -14.240456102691438 1.1424392517125195
135 3 7 -5.049783255499874 -15.385737996921518 1.3615868278740977
136 3 7 -3.857252697963248 -16.245709034491036 2.0209467689915708
137 3 7 -4.816959263541552 -16.044390129201023 0.14766046824373633
138 3 7 -5.407995047439095 -17.359057478758594 -0.7762000593232541
139 3 7 -4.223644476269718 -16.338209380276574 -1.6692444553034973
140 3 7 -3.1547230771675947 -15.985490893357717 -0.6509289567624271
141 3 7 -3.902703246219789 -14.760104476008442 -0.7873593304622153
142 3 7 -4.021564603275072 -14.157229305870612 0.7453330217981143
143 3 7 -3.0093961935103413 -15.303919984613815 1.8951484777756322
144 3 7 -3.219450112162172 -14.151609178629743 2.8202571878818574
145 3 7 -3.368014548942416 -14.146294700333828 4.002921157381065
146 3 7 -2.980826604433067 -13.01133057105833 4.855550870434975
147 3 7 -2.5871628934961053 -13.999464552009261 5.5863811133558645
148 4 8 0.19841087149393502 12.658060903633476 16.30609183433748
149 4 8 -0.6885352607728283 10.795052676640253 16.772702318529664
150 4 8 -1.1221730674373407 11.592425566357567 17.746495471044344
151 4 8 -0.6011234571959354 12.396990362960262 18.3013528895759
152 4 8 -0.41670952902684577 10.605858760984978 17.76164028712755
153 4 8 -0.4935423812329721 9.869327071413814 16.240343725071448
154 4 8 -1.6431064779390012 10.592558917818014 17.032433789516087
155 4 8 -3.11574283770018 8.98425951837122 18.023967511159217
156 4 8 -4.056530970053592 8.11531523609575 17.17624046500515
157 4 8 -4.935936852561106 7.051936568011637 16.933441199698265
158 4 8 -3.242220468985753 6.145831960540273 16.846358562425934
159 4 8 -1.572453790511017 6.788126018341735 17.345278590797133
160 4 8 -2.564050371214359 6.346255574525782 18.217870192089652
161 4 8 -0.9937341615637735 5.390496805278903 19.37318396729791
162 4 8 -2.502931281531808 6.115188768728532 19.349325412266893
163 4 8 -3.6876335778718596 5.858223918459221 20.966722505520107
164 4 8 -4.686957233086099 5.762912130518688 21.842522157029887
165 4 8 -5.624542692613499 7.067244539335883 21.36702752112038
166 4 8 -6.612745884160507 6.980604271815421 21.6596241853165
167 4 8 -5.304313327524956 6.462998155297187 22.56497491654713
168 4 8 -5.8785811206927825 7.435290376909389 23.170037091971572
169 4 8 -5.295766666718288 7.087887910010101 23.983212839731713
170 4 8 -5.947998057262845 6.525019812380515 25.609210415452708
171 4 8 -5.500510032909969 5.396440041740741 25.1451703821762
172 4 8 -5.036228524871029 4.589629599586722 23.908628994577246
173 4 8 -4.335685086898917 3.097048919024932 24.57299417328052
174 4 8 -4.583597692643694 2.2734722287934894 25.27228617451489
175 4 8 -3.353061349045607 1.3173289122971337 25.547661529227895
176 4 8 -4.378656107905292 -0.1759463442459061 25.20715923894882
177 4 8 -4.982166869809818 -0.46705889546797924 26.42889779162604
178 4 8 -2.9587801155881635 -1.2160816754590693 26.32664430163789
179 4 8 -3.331524881152789 -0.28281211145205637 26.0106761314972
180 4 8 -4.678511443882783 0.674072971110805 27.24098950631005
181 4 8 -4.515736962433923 -0.41593095292753884 27.854686596201187
182 4 8 -2.7270487874312836 -0.2324487207999243 27.732798984332604
183 4 8 -1.9732238932938602 0.0027438549140456603 26.32495420920215
184 4 7 -0.9712293703911595 0.059411520076000306 26.929023397903098
185 4 7 0.6537509695572891 -0.15147593247556443 26.50420749035394
186 4 7 1.1547377083672994 -0.7527881415551427 25.61986360639736
187 4 7 -0.2805133633600529 -0.5645880896939636 25.901356030806955
188 4 7 -1.4614963425947922 -1.2361723734950991 25.432416413719523
189 4 7 -1.3312875049756514 -2.3684299465479133 24.974015294509478
190 4 7 -1.5328882704986315 -3.331354952165495 23.699500967777727
191 4 7 -1.4460959329708842 -3.142985655465694 21.88150916283978
192 4 7 -1.755031094374706 -4.3885367645137086 21.821889090348325
193 4 7 -1.3340976686489083 -5.10734867803856 22.99099715878568
194 4 7 -2.4686172623278924 -4.958640355129188 22.572726990898854
195 4 7 -1.0628727449406281 -6.32946810013034 23.003333560210017
196 4 7 -0.7954543470622123 -8.027746789301489 23.315419429054703
197 5 8 -1.2693566308462616 -4.3820605928041845 12.164899419750142
198 5 8 0.1546105748547835 -5.18897880114662 12.832013227273508
199 5 8 -0.2114736344355327 -5.193739547599165 14.32432762085811
200 5 8 0.8233358353228011 -4.784949055458723 13.611659817550663
201 5 8 1.6326882987276496 -2.859044489174116 14.507297548185901
202 5 8 1.4156285979946341 -3.805309270811786 15.618960821731566
203 5 8 3.0511670725343962 -3.0074997575925497 15.83329828193093
204 5 8 4.049763278843751 -3.744985917929737 16.552623338068084
205 5 8 2.451866583265405 -3.3121065722907304 16.913541334702913
206 5 8 2.7647898970791074 -1.5808881678482454 16.793170335217365
207 5 8 3.5256864736971325 -1.433609008579734 16.119794349662687
208 5 8 3.6153703547564278 -2.0872461487858867 14.621449897208661
209 5 8 4.278858072900385 -3.2503579002863296 15.440337652661894
210 5 8 5.768333980039299 -3.4205429845275375 15.429214794548825
211 5 8 6.063765131484908 -2.4149081641563677 13.85502990710923
212 5 8 6.91614858754697 -2.525746953605911 15.003908953420718
213 5 8 7.92444311769131 -1.2394876527275738 13.550389488633027
214 5 8 6.69925821572728 0.031713165443862504 12.718067753110809
215 5 8 6.563322149276754 1.281751063862781 11.731774883741211
216 5 8 6.723076795263554 0.3672123383049556 10.912278875029712
217 5 8 5.464778907461159 1.3009385045646655 11.395910763963382
218 5 8 7.139092332524687 2.3389302834342165 9.7734234125086
219 5 8 8.495889806700465 1.4665178218761301 9.670180348114707
220 5 8 8.406453373980296 0.986608753690479 8.302232740075246
221 5 8 9.296943649467096 0.957716938466005 8.7075661604638
222 5 8 7.74723702159971 -0.007591053677228007 8.526049015390734
223 5 8 8.207501061440164 0.9513142133360237 7.211413861489274
224 5 8 7.146419356072262 1.4675503263824756 6.348221325752313
225 5 8 6.763724384139245 0.9764345555379631 5.4846092607753985
226 5 8 7.816009923646724 1.5030123044813262 4.922792112620982
227 5 8 7.187234320802932 1.9598018837876157 3.5379053380120697
228 5 8 8.53896758179299 1.6305262865915657 3.659663065475457
229 5 8 8.783324391317846 1.4937518812866726 2.2174130774243648
230 5 8 8.921677576903978 -0.3945905473667066 3.462747869503459
231 5 8 7.801768105079542 0.4335935838642701 3.31243594619842
232 5 8 7.642717164463229 -0.3162310119079854 2.5598969455003076
233 5 7 8.474026280064896 -0.4496782698351704 1.3487644393426004
234 5 7 8.4495898355995 -1.9329706144618304 1.8664950926496577
235 5 7 8.154741476409686 -3.1252782939125234 0.9446742062258726
236 5 7 8.668548718191902 -4.2155595829345325 1.397899654601271
237 5 7 7.684095835070556 -4.017520624882105 1.7975848726100776
238 5 7 7.01668845213294 -5.6430237110181025 2.7943310829519823
239 5 7 5.663497161386059 -4.989089800692357 2.253581586033962
240 5 7 5.187116362862298 -3.6072572599265014 1.9238235500433514
241 5 7 4.639046562272421 -2.6425109882949664 2.413125764947798
242 5 7 5.37979886450956 -3.4911286816386977 3.3658079349747068
243 5 7 6.32834741137047 -3.2123151029020147 4.540112620008192
244 5 7 7.527172687599928 -2.091458933639376 4.835729555949054
245 5 7 6.93459914287825 -1.5278816519578597 3.0569883737486756
246 6 8 -1.8219299221500647 3.0702523777177633 4.3657617270291595
247 6 8 -2.16868297845496 4.200285428660184 5.8703654240951115
248 6 8 -3.3097763773619318 3.20735512532937 4.130383756884494
249 6 8 -3.0757957662238113 3.1353084400129876 2.931316523343786
250 6 8 -1.9082518953790595 4.263304178181259 2.7441748879905763
251 6 8 -1.317199084034878 3.978813569375145 3.689149071731318
252 6 8 -0.9045434730429736 3.132527461177638 5.196430258743207
253 6 8 -0.13314575150911204 3.517396872878565 4.449431127190323
254 6 8 -1.7281203876923061 5.273341121639249 5.773786986384771
255 6 8 -2.867583891408785 4.6835197527746875 6.311891180659614
256 6 8 -1.3017644869846954 5.060026550498722 7.368989370139396
257 6 8 -2.3055613556724452 5.143857957740369 7.875950976512509
258 6 8 -2.973948527923899 4.931145433926644 9.01756747431076
259 6 8 -3.97651961603194 5.887742663458104 8.707514163851766
260 6 8 -5.077011996256192 5.851783009505246 9.228735290166226
261 6 8 -4.328906571326873 5.392351565250365 10.02157095626459
262 6 8 -2.857650569357981 6.0459784404301 10.056102210686245
263 6 8 -3.1017075849317335 4.872153908289974 10.237174852954299
264 6 8 -3.302157912839253 3.8554259935895696 9.741731623631019
265 6 8 -3.7726349652974323 1.8963274921131315 9.220328767368201
266 6 8 -3.245351534812985 1.6938529078770677 10.974075320820724
267 6 8 -3.963685458671567 1.5038662557985443 11.829137256606048
268 6 8 -4.038793706557839 0.4066674082932159 11.192202307801159
269 6 8 -3.056741290723459 0.7208275985399177 10.967407994001062
270 6 8 -2.96433058708879 -1.0132077404153517 11.590325189488166
271 6 8 -2.507675801345348 -1.654411352403915 12.810742328204519
272 6 8 -3.305019183659715 -2.112468411798455 12.100895255596665
273 6 8 -4.066171110209832 -3.312562956919254 11.386774281874471
274 6 8 -4.184817134500509 -4.356325427510436 11.80430307100024
275 6 8 -4.727390793138955 -2.6052386291765264 10.324711999822522
276 6 8 -3.648521017527657 -2.132487690563665 9.662942658428678
277 6 8 -3.125196058435921 -2.970473006112523 8.825778043559621
1012 30 10 -2.5414232767526848 -1.6699139871464734 8.507833213747897
279 6 8 -3.78123139955021 -2.41137015068368 6.564280214124875
280 6 8 -4.71870158567258 -1.8842144517408266 5.784534481200581
281 6 8 -4.963489812107324 -1.9029576064893583 7.702955085904576
282 6 7 -5.052470904259573 -3.051954642170329 7.7053416674815605
283 6 7 -4.992176587611252 -4.60364784245311 7.056470785295237
284 6 7 -5.253551278589846 -3.207423912469546 6.272211539286629
285 6 7 -6.714009005889508 -3.4282815674672094 6.754233469383455
286 6 7 -7.000606518014851 -4.110315451793521 7.520297336249643
287 6 7 -7.1036289193132784 -4.990756061609158 6.403491782864173
288 6 7 -6.267569783604519 -5.630398899530267 6.997716779351908
289 6 7 -7.316136866627219 -5.8146133755923035 5.365081026227102
290 6 7 -8.173105988017479 -6.557509690484926 5.495455363023811
291 6 7 -8.878332324436606 -5.237288491222821 5.158793610041064
292 6 7 -8.274843930783874 -4.578199020760113 6.342851864093308
293 6 7 -8.250873481300335 -3.3793627324663804 5.232596883708171
294 6 7 -9.317695190124438 -3.0604513563449136 5.8163606497381535
295 7 8 3.1809881982084183 13.633270940046069 5.310647319581745
296 7 8 4.058029605073298 13.411083770452972 7.343036834169204
297 7 8 4.189439094855906 12.817192867830492 8.343924352434605
298 7 8 2.5994220754747293 13.447533560139801 9.033698848685425
299 7 8 2.740971939690262 13.247492504166592 7.437104742562561
300 7 8 1.4850915195358072 13.016649417391482 8.503514032882755
301 7 8 0.92261895270941 14.189435621760287 8.90024892881638
302 7 8 0.946241770065059 13.472936030750759 10.01640267218148
303 7 8 0.7261967332114077 14.765651598774623 10.524680741555848
304 7 8 0.6716647032999966 13.238878680248757 10.978498846788812
305 7 8 0.42302014279327427 12.463556156846922 11.71545944765345
306 7 8 1.7733510597411504 11.295489991844757 11.75735383894454
307 7 8 2.67413500241621 10.130045044343523 10.961439381602823
308 7 8 3.7297030488973593 10.402852712817365 10.597785850434413
309 7 8 4.3434443814766786 10.063066752616514 9.764142207205873
310 7 8 5.269103352665624 10.729744987287503 9.63618156412825
311 7 8 4.846486224097108 9.706345429772842 8.185961292449699
1011 30 10 5.079180496573363 7.967129411137175 8.758930871172417
313 7 8 4.424520000589306 7.4873198983370575 9.593221245846099
314 7 8 3.9051279880589256 7.046773250951576 8.20887108725449
315 7 8 3.6425131841376412 6.545782695091745 9.132604815543433
316 7 8 4.513199625054934 5.94160841162044 8.31293491469035
317 7 8 3.223708764729686 5.192730432505889 7.1801078209256906
318 7 8 1.7472915210988313 5.015816823042609 7.059161961878959
319 7 8 2.4071496121404667 3.8441269581683177 6.573345950606163
320 7 8 2.028589182213908 1.9457119127498894 6.704157324449485
321 7 8 2.194190746151926 0.8709353370635678 7.468149154958024
322 7 8 0.6911587755053851 0.6624528432717561 6.751604486553169
323 7 8 -0.37073169226823266 1.6615624685136472 6.330376744705544
324 7 8 0.7158764294197475 2.4508310430453792 6.945468391299134
325 7 8 1.4396516190715665 2.9321969604976506 7.5729723653080825
326 7 8 1.3704939352143735 4.0966019281591395 9.479982896715702
327 7 8 0.901072893286763 4.5363872733747685 8.480250373533279
328 7 8 -0.18516541465325226 4.683077752387668 8.818467529336681
329 7 8 0.575794895602527 3.4749668124953557 8.593836027586159
330 7 8 0.227535740469826 2.895487267769837 9.798564947690606
331 7 7 -1.2405045132195285 1.787693568524187 10.167073171054394
332 7 7 -0.07222619105348511 1.6285283844503242 10.400301084130993
333 7 7 -0.028103919939394525 1.5552116014944368 11.930250293146361
334 7 7 -0.37304834054545644 2.3500047031419014 13.614897457990066
335 7 7 1.3118227935450135 2.2756309808577413 13.547159521738774
336 7 7 1.3213104234204351 4.007838272690626 12.475824128400028
337 7 7 0.06688472431149993 3.683992917269404 11.86506010132719
338 7 7 0.6585257525220233 4.772331483179127 12.016347663411967
339 7 7 1.5892372826579462 5.7706038574866465 12.756630121802129
340 7 7 2.5126932132645554 5.446414488305839 13.907654546299316
341 7 7 1.4419746733513756 5.529074323318962 15.053244713624267
342 7 7 2.4243480089184897 6.5225808808573325 15.861810721955953
343 7 7 2.7287712393316204 5.743045446418045 17.087988381276237
344 8 8 6.508665772679699 18.77464904652028 -9.2560905607696
345 8 8 7.031270996929874 17.762190373590737 -8.168444742841947
346 8 8 7.253506579814112 16.73987084991578 -7.2297631238483016
347 8 8 6.985508881302423 16.23650710809566 -8.135919128041941
348 8 8 7.879522491265524 17.368264219069452 -8.369856930554086
349 8 8 8.794686724295376 16.830184905019856 -9.807098943502332
350 8 8 7.841595547303789 15.727523065762465 -8.902728714227155
351 8 8 6.774488676493333 15.53153298328009 -9.959556382502177
352 8 8 7.329077353768597 17.191352460665982 -10.395082053840808
353 8 8 6.655281226621074 15.61940927555761 -11.07559881684387
354 8 8 5.542052925703038 14.43016772228304 -11.200823433419933
355 8 8 6.727396898073251 13.498815379887183 -11.83290409175654
356 8 8 8.172640263589708 13.339179283704311 -12.130179193812976
357 8 8 8.584345461744721 12.255579068756568 -11.523943979360693
358 8 8 9.321025186918618 11.915206335821576 -10.342142928539763
359 8 8 10.084833935510968 11.86063187743535 -11.099388838322033
360 8 8 9.611069972582639 10.527935471106625 -10.441979589042448
361 8 8 10.53696087826133 10.12026805350571 -10.997721937974552
362 8 8 11.690714624011939 9.443085833546315 -11.479258036148018
363 8 8 10.264351955866438 9.034453234602065 -11.497426767069886
364 8 8 10.0928975701189 7.852392475434505 -12.071568726912087
365 8 8 10.356243883570958 6.092709919653743 -12.844227027735116
366 8 8 9.96417490934738 5.29103933667259 -13.743543665665172
367 8 8 9.106493385067807 4.0494007929920945 -13.767309359490058
368 8 8 8.748614179031833 3.607086764180202 -14.658577391405698
369 8 8 7.772005554252813 4.535837017139989 -14.814997648940793
370 8 8 9.141652479080637 4.872503258345385 -14.828290580684298
371 8 8 9.261665677866645 4.336618574069239 -15.790785147924424
372 8 8 10.437702527231089 3.7684465113498056 -16.064736532104607
373 8 8 11.574293427304587 4.107640063659696 -15.837850601742756
374 8 8 12.90375255284117 3.160190384842372 -15.94872841237998
375 8 8 11.798011424142052 2.234318364701631 -17.257831081670854
376 8 8 12.8763148223016 2.3087689120929613 -18.189297016547837
377 8 8 12.06731736880316 4.09657987660661 -18.170601901214773
378 8 8 12.050137722339311 3.8573169526824826 -19.87622169459202
379 8 8 13.221525013542582 2.2995384350845804 -19.63112422102247
380 8 7 12.724874958036885 1.3204043434683301 -19.871265134757994
381 8 7 13.89171114731624 0.9666887257131018 -18.69320537862873
382 8 7 12.853959741676046 0.27752293495753866 -18.760542329708382
383 8 7 13.648966539396177 0.35900292705641523 -20.045958099592756
384 8 7 14.366389098609064 0.14361432281972372 -21.61025675760306
385 8 7 14.7441369912207 -1.1380336647331812 -22.14092812510287
386 8 7 14.776098549735455 0.4082361483901219 -23.00922887717503
387 8 7 15.837643065993703 0.7076778779107116 -22.117119998706738
388 8 7 15.597352729529248 -0.26190877563227305 -22.28018381775416
389 8 7 16.044374046691093 -0.8308636864943367 -20.770847856232823
390 8 7 17.279949874080508 -0.6360133883505148 -21.79089086085487
391 8 7 17.50842440020087 0.6250605660213986 -20.610912488644683
392 8 7 15.736315979606333 0.289139724606149 -19.886044771455666
393 9 8 -5.646418112891658 -5.32427579370845 -14.129326210895941
394 9 8 -6.751029179249887 -5.036166815037069 -15.156847959040844
395 9 8 -6.411554382947177 -4.4368350423385765 -13.778582185006112
396 9 8 -6.887752574789828 -3.3795267712324732 -14.111923530637208
397 9 8 -6.2715128924339085 -2.4907562902370954 -13.225851347738141
398 9 8 -7.487801610986148 -3.007722824047177 -12.846049944677528
399 9 8 -8.78642324554862 -1.7538843409489127 -11.861117665576723
400 9 8 -7.095253247917437 -1.9075820908027679 -12.181378680992777
401 9 8 -6.540670076466588 -1.1371696805784262 -12.794909538303175
402 9 8 -5.2838096942336765 -0.2631731232342227 -13.435857060285677
403 9 8 -4.304051582591155 0.1122351225479578 -12.642243666715105
404 9 8 -4.374937873359432 0.7145884548402044 -11.660802466360298
405 9 8 -5.96070081031533 -0.15014199675137838 -12.51764462967705
406 9 8 -6.400215568067894 0.8035606864459872 -11.220635242043842
407 9 8 -7.757668588778359 1.7116706209786838 -10.648541313514215
408 9 8 -7.629377737698355 1.6101018723964902 -9.526024182825232
1010 30 10 -6.182735969738744 1.7081351974328223 -8.758019583223538
410 9 8 -6.322436898561628 0.8637700070019187 -9.30005418884375
411 9 8 -4.913016708079493 1.4599014561182688 -8.814470903472433
412 9 8 -4.808594887513352 0.4120648101844229 -8.536087014731272
413 9 8 -3.0602702218816473 0.18042583839916093 -8.623898029024378
414 9 8 -3.9445841686267924 -0.2050525907102248 -7.569719390036304
415 9 8 -5.607376702528702 -0.6479033383162732 -7.332016633726674
416 9 8 -7.0316652919157026 -0.8027840541517176 -7.272088551101184
417 9 8 -6.372150529124771 -0.06534458164168486 -6.606503778880615
418 9 8 -8.193513011300032 -0.035031711714634 -6.534763823569996
419 9 8 -9.136802507557414 -1.5502028373080639 -6.560359417416645
420 9 8 -9.85678846100488 -1.7935814432412005 -5.657966528198503
421 9 8 -10.859374348585531 -0.735580867519151 -5.778414240849957
422 9 8 -11.166720173204812 -2.053422213599666 -5.912281593540582
423 9 8 -11.420053375567475 -4.15560365019834 -5.538874972033711
424 9 8 -9.892366222771745 -4.65331296463333 -6.8952809668215425
425 9 8 -11.085260243946243 -4.103484083535788 -6.675698125290796
426 9 8 -12.725056668145951 -3.6895593583278155 -7.452215580009411
427 9 8 -13.103895708500914 -5.308079030778677 -7.274453609241364
428 9 8 -12.890529211870005 -7.397638959824119 -7.4371825851175775
429 9 7 -12.920745589247266 -6.820742446379168 -8.547329728625083
430 9 7 -14.033172230762327 -5.535119702808827 -7.953990513786002
431 9 7 -15.247712243801521 -5.692330137254474 -6.970124430662011
432 9 7 -14.580885460272171 -5.824439012786695 -5.227108944248664
433 9 7 -14.756003781436977 -7.347448050517535 -5.008399128805421
434 9 7 -14.583107490025881 -8.574995360546197 -5.995487483703569
435 9 7 -13.78171521769829 -7.375329753237366 -6.630641811650205
436 9 7 -15.055543181729123 -7.56254312981637 -7.416451393612429
437 9 7 -14.378620686215063 -7.146416857913193 -8.666804938811362
438 9 7 -16.37962575049854 -7.055423200484952 -8.264361445516263
439 9 7 -18.168995602670456 -6.080245881144435 -6.965864810978442
440 9 7 -17.20900750963463 -6.6121097436329945 -6.309715497946106
441 9 7 -17.407004118219614 -5.823928437572278 -5.114390877927687
442 10 8 -0.3291660354473667 16.380955377695884 -0.7253046411735823
443 10 8 -1.4484855479157415 15.90728496752421 -1.6648838161759825
444 10 8 -0.3220063765321487 16.709202822951596 -2.1072042941627367
445 10 8 -1.691572400936486 17.923689323668004 -0.7439265386842646
446 10 8 -3.0954374762687293 15.910831185793059 -0.9868004566297974
447 10 8 -3.6220102999452504 14.672568586947557 -1.1949395385366022
448 10 8 -3.077579650660487 14.241326571106473 0.5904309951309609
449 10 8 -3.171660914024166 13.669402750564766 -1.180026983639338
450 10 8 -2.175752299526023 12.785283713139972 -0.5149985813563323
451 10 8 -1.6909684330064558 11.827548331122442 -1.5535416740749024
452 10 8 -1.7494440756219367 11.800137290134966 -2.7056736193975213
453 10 8 -2.4900767057757727 11.006692261969492 -1.4104610222140057
454 10 8 -3.8407521759944103 10.811394675048447 -1.5966517493918884
455 10 8 -3.4562643956521955 9.736128842771304 -2.007546415990856
456 10 8 -2.256661066634863 9.988078217115623 -1.2730218688199346
457 10 8 -1.6716724116917487 9.557084217024563 -2.0349024976613936
458 10 8 -1.5554204903794504 9.41695418640918 -3.2631239860038006