# Generated from readdy-to-lammps

1005 atoms
618 bonds

10 atom types
1 bond types

-30.0 30.0 xlo xhi
-30.0 30.0 ylo yhi
-30.0 30.0 zlo zhi

Masses

1 1.0
2 1.0
3 1.0
4 1.0
5 1.0
6 1.0
7 1.0
8 1.0
9 1.0
10 1.0

Atoms

1 1 8 -14.669134576755214 -9.191845169030804 -10.62585602457083
2 1 8 -13.709663632612088 -9.586931607366438 -9.835839466509581
3 1 8 -13.501043520757518 -9.976342294725763 -11.019666264653392
4 1 8 -12.100270282623773 -9.486261862236438 -11.861880247678835
5 1 8 -12.221597944732169 -9.117423110713364 -13.084309276330908
6 1 8 -11.88549347527243 -8.06908952863397 -13.695775548420777
7 1 8 -12.516271966939643 -7.138726340652555 -12.401805594409783
8 1 8 -11.210080638613295 -7.277208710569289 -12.992359821624907
9 1 8 -11.329672352401266 -5.833728377940351 -12.357315482393894
10 1 8 -11.050125652990232 -5.111152031383729 -13.241266805368845
11 1 8 -10.174373582501758 -4.499714892846714 -14.2768347036924
12 1 8 -8.990976067487177 -5.113244411420529 -13.439914820343073
13 1 8 -8.895409825700321 -5.501371245790133 -12.408682817405948
14 1 8 -8.14930241540815 -6.983760844926693 -11.88654548248813
15 1 8 -7.075764872674912 -7.786972119882023 -11.816533673972797
16 1 8 -6.852442053156278 -6.810618614592852 -10.634830941149929
17 1 8 -7.800973017437385 -6.68415238247142 -9.884755104921465
18 1 8 -7.26369685828034 -7.91557161719737 -10.360455209665934
19 1 8 -8.562688236786334 -7.504369276214798 -9.877317278389508
20 1 8 -9.650722500695851 -6.533774543617681 -8.585786015909795
21 1 8 -9.016236648534797 -8.173838463924866 -8.652224853527454
22 1 8 -6.720984197422239 -7.630309211399582 -8.585075594083063
23 1 8 -7.491600093840267 -8.420461089109484 -8.603427862781825
24 1 8 -6.508832350959698 -9.203842316595319 -8.701856974893568
25 1 8 -6.053990458479728 -9.90992237334938 -8.051068394165465
26 1 8 -5.3259401895804706 -9.298079389895662 -7.60171780421837
27 1 8 -5.775460112350876 -7.736092850042168 -6.700719496038909
28 1 8 -6.343652430354185 -8.479907930644877 -8.108082012035043
29 1 8 -6.266680052635373 -7.6325970068335725 -9.591291766657147
30 1 8 -5.839104677624129 -8.825292035929213 -9.469823199099961
31 1 8 -5.81968275883346 -8.750502760574088 -10.847762227503743
32 1 8 -4.373134486475078 -9.043949688179394 -9.73211579082279
33 1 8 -3.2787593951496388 -8.667235282181409 -9.268021415041849
34 1 8 -2.6331609451666846 -7.834711500696984 -9.269280096221902
35 1 8 -1.4187484397202437 -6.964924459088148 -10.315897841502364
36 1 8 -2.1709938239271183 -7.842315372208242 -11.240087463716094
37 1 7 -2.5916393303169554 -9.365286926183318 -11.141089042959495
38 1 7 -1.4076587994922822 -9.098904159579998 -12.510381379549859
39 1 7 -2.311102146274689 -8.13033571789568 -12.877624135881367
40 1 7 -2.9869621505319452 -7.257403921440624 -12.269301605743022
41 1 7 -4.824821858210784 -7.980772352848847 -12.40898529080576
42 1 7 -5.812716455862105 -7.389462398598892 -12.756372458585851
43 1 7 -5.254295795000043 -6.788804285455716 -11.240822049981807
44 1 7 -4.9764397387723305 -5.943424070098589 -13.198358089101099
45 1 7 -3.73049420586786 -6.23685708404764 -13.109997118827675
46 1 7 -3.0097419481259866 -4.498241738193473 -12.825860285135052
47 1 7 -2.1396880166536376 -4.359016683519331 -11.879015355315714
48 1 7 -0.8653378976658045 -3.7547825901341207 -13.138722397946017
49 1 7 0.012153801460594846 -4.24337209359847 -12.349768687674029
1050 68 4 -2.4477051591165484 -3.200801545890948 1.5641605940538665
51 68 5 1.9985771777027388 -4.564225523334274 -8.040862625261388
1046 68 5 0.3308110671557849 -5.966566588491435 -1.015658724679072
53 68 5 -1.5995101370651867 -5.578199050127926 -0.5918785060030782
1042 68 5 5.314126963103939 -2.883777851407692 -2.4639244710996957
55 54 8 3.675670720015793 -6.932374615669085 -0.9180278224466174
56 54 8 3.7398273671253133 -6.1341952302143055 -1.6295708812023577
57 54 8 3.490892325419847 -5.6995448395126695 -0.2409536016996441
58 54 8 2.8774457245300313 -5.85578767923019 0.9110902887670855
59 54 8 3.3894145391851236 -6.776049896532029 1.359391201554111
60 54 8 1.8786877578942012 -6.424917799527764 2.2478948142654236
61 54 8 0.5197132314639095 -5.354008570489256 2.4614782278852294
62 54 8 -0.09670647704241288 -4.938510012081785 3.2098817220510547
1007 68 4 -1.0871306836433277 -10.469912716610159 7.631293674027985
64 27 8 -0.06379161882331615 -7.11602013754995 0.3837695777484839
65 27 8 -0.6437431900582594 -6.647508914019627 1.7722510186129437
66 27 8 -1.8684019490417285 -5.878360474537163 2.011363814347561
67 27 8 -0.9732001009792011 -5.482877083821547 2.5410942667266663
68 27 8 -1.7189119152059944 -5.3728356993463695 3.648720585124336
69 27 8 -1.3516926495037318 -4.194503601141043 3.861708112621528
70 27 8 -0.7595425347106132 -5.154649899672642 5.029539093794203
1036 68 4 -2.1362809530151887 -4.58588077935477 5.956653952168601
72 68 5 0.09560276936698887 -1.130206049407375 1.2922278668556
1009 68 4 -1.3154523593996763 -3.2723608934711246 8.253512366695402
74 56 8 -2.345803832794269 2.084548573401905 1.3398913241661996
75 56 8 -2.2726844881880504 0.9570571444135251 1.685198061432033
76 56 8 -1.61208841426423 0.08673167911517307 2.388547253459817
77 56 8 -2.465125852428066 -0.9004607938527216 1.6503559131511762
1074 68 4 -5.1705738339048795 -0.4342946491217534 0.25784461085420346
1037 68 4 -3.53098938041289 2.52633015696536 7.752368803591738
1017 68 5 -7.978481039192332 0.9778927818075182 6.417640256520382
81 59 8 -4.388669912845606 2.572096964938734 2.41200057852725
82 59 8 -3.6661709373425055 4.060217412548093 3.664862161783207
83 59 8 -2.3130591362699637 4.041149109507295 3.2728715174934444
84 59 8 -0.4653121989641243 3.718421823669319 2.773219696430295
85 59 8 0.3894054616548884 4.486035831493442 3.4767672062833754
1079 68 5 3.2420221989247215 2.1971484828121066 0.7279600142619762
87 62 7 3.651259445340352 2.3660188399706 3.3862209551993123
88 62 7 1.7049544857930277 2.401241311188365 3.776662864824999
89 62 7 1.7591656554956763 1.1287663835714796 2.567406721488159
90 62 7 2.2413633245039617 0.15759844348984292 1.1786138179157852
91 62 7 2.335311913692457 -1.337281169560538 1.917848207314875
92 62 7 1.3722239036034898 -2.534929991896653 1.4446749782656305
1044 68 4 -0.5651412533672555 -2.2368644512519666 -2.1302578482295154
94 58 7 -0.08033232972421307 1.3041564042952847 -0.9022022676760856
95 58 7 -0.9643962333804537 1.334931943517495 -1.1861046047438213
96 58 7 -1.1982868394990092 -0.2243008631330498 -2.3190110349175836
97 58 7 -2.8229880113118018 -0.10602288578503033 -1.4417904207227332
98 58 7 -3.2653779232978484 -1.4434355555305303 -1.9020322766928048
99 3 8 2.0867780369480737 -8.671110918244228 0.7129463433083846
100 3 8 0.9792247175919738 -9.460673798472252 0.27446932379333283
101 3 8 0.237560359333507 -9.2457234865806 1.707163540584083
102 3 8 -1.4426081327210232 -9.070135695651642 2.5138368128114874
103 3 8 -2.4744305540526863 -8.33856218733431 1.475050089406714
104 3 8 -2.6801535411294544 -7.4997298227604325 0.36115259823821366
105 3 8 -1.6917030571512728 -6.731484571566613 -0.461386114520551
106 3 8 -1.9239109112330757 -8.248150472244212 0.312694677125159
107 3 8 -2.9031921365904774 -8.32593033956395 -0.2537424948699147
108 3 8 -3.9388093116096012 -8.971401469577746 -1.1526384666356286
109 3 8 -5.067358871430204 -10.372378808025179 -1.6620468608940413
110 3 8 -6.021964855856842 -9.606013066661548 -1.823167633355853
111 3 8 -5.2209226212935675 -8.671931602502344 -1.5829543207151116
112 3 8 -5.719709444405302 -9.519103798362188 -0.767031541507902
113 3 8 -6.541036464272629 -10.395485541158752 -1.2183751189314727
1024 68 5 -3.677127995720283 -11.334609083111449 -1.266232933969021
115 44 8 -5.852429816840698 -10.502701962589379 0.8055667093293806
116 44 8 -5.355817170293118 -9.967396359949081 1.8714472750289746
117 44 8 -4.541206494573793 -8.491257710743739 2.5432788164908158
118 44 8 -5.636548294346473 -8.618993144636386 1.554938826427681
119 44 8 -4.415606435473469 -9.759655767685398 1.1238025760853017
120 44 8 -3.6997419291726614 -9.20536203792601 1.780397885049319
121 44 8 -3.195602151543689 -7.2953997661795835 1.975502286946806
122 44 8 -3.441649760132782 -7.740461328050439 3.2935877957512587
123 44 8 -3.270052470974117 -8.874271633747936 4.1961785756830725
124 44 8 -1.7386231524917413 -9.014529738566997 3.5715399366302383
125 44 8 -3.158441936090959 -8.719725752465727 3.140352789672907
126 44 8 -2.383433899826436 -10.033944168845068 2.119030572374921
127 44 8 -3.2280025037919464 -10.716116280396355 2.5776827580324
128 44 8 -4.550271372619457 -10.791007981057867 2.208936506569635
129 44 8 -6.006629340054862 -11.162442303579475 2.1046174289961366
130 44 8 -7.023333728895375 -10.959604484372925 1.8445646382371532
131 44 8 -6.816396277435739 -12.811335012678416 0.8827462704554098
132 44 8 -7.566250897138989 -12.377857443439536 2.569774276159449
133 44 8 -8.539530437040408 -13.196539915493666 2.442805281852668
1084 68 4 -9.609857761660416 -14.399907967055977 1.7256541771597744
1025 68 5 -6.529195575929965 -14.14442878767205 -5.197095517401864
136 42 7 -6.123693724705629 -16.61697763219614 -1.0836219819690527
137 42 7 -6.146109629952786 -17.926299024279587 -1.6302493769176636
138 42 7 -5.129793625690113 -16.09120288191598 -1.7853050796033907
139 42 7 -4.068274987933401 -16.83367774736715 -0.6449937865452405
140 42 7 -2.332300988945286 -16.261328343356546 -0.5521115934981333
141 42 7 -1.8665675578470504 -15.907946304286853 0.7421639946228336
142 42 7 -1.495021761808016 -14.079843985898286 2.163089478872645
143 42 7 -2.665100163801139 -13.458305363319788 1.6154634134113253
144 42 7 -4.038923749308554 -13.825472754069176 2.6845627062631503
145 42 7 -4.195648336833105 -14.06570475907736 1.5191862625472607
146 42 7 -4.762237869614517 -12.349908967679035 1.5137253425127082
147 42 7 -4.7325092911834385 -12.350944099322932 3.0339906712761127
148 4 8 -0.07498280666720025 11.253805887863933 17.963305158333164
149 4 8 -0.5099893650690542 11.412328077467276 19.01560896766066
150 4 8 0.27119704228510677 11.944703428862455 20.552786833750677
151 4 8 0.15831032303290268 10.780857753213164 19.697880485154467
152 4 8 -1.1832422572894012 9.947774437575669 19.060436332017403
153 4 8 -1.6687368611018263 10.147938058903314 20.20196070611315
154 4 8 -2.9866183110039133 9.03743884321403 19.957935635406695
155 4 8 -2.721908391854741 9.400013452876681 18.9976115631843
156 4 8 -3.012252395293823 9.334335754101879 17.77947458990565
157 4 8 -2.793623401157623 8.942031764276045 16.42802080149794
158 4 8 -3.019562740878182 8.184025685293483 18.060945334549437
159 4 8 -2.568382907586974 7.242476676429223 19.240586288326185
160 4 8 -3.1269975405824857 7.265189372060324 20.110025999698117
161 4 8 -3.7457115703914172 5.499747079991497 20.185437458349917
162 4 8 -2.3325702348507007 6.019087875538012 20.079594540443843
163 4 8 -2.691027962861661 4.558179929964391 20.560062533025896
164 4 8 -4.4992869348265 4.3450338020014945 20.741746669453118
165 4 8 -3.2152280095643366 4.2870817661458185 21.667391906312414
1031 68 4 -4.2905631479919695 6.84535531918829 19.206428982454497
167 68 4 -3.1889079441320805 8.213884355628403 22.290541682339818
1043 68 5 -2.7376761022615956 4.723124741104361 23.42565224294615
169 63 8 -4.091199078263131 3.3212567060651392 24.069794547927913
170 63 8 -4.349789666722129 4.408125182149643 23.802268634874547
171 63 8 -4.465484121823187 2.360699086335155 23.59007384869371
172 63 8 -4.945022203433849 1.244302413608656 22.7608293647093
173 63 8 -5.120955732079519 1.3882698123891868 24.05717702303197
174 63 8 -4.349056559313591 0.6319149221416783 24.48502681456762
175 63 8 -5.670881203739135 0.4248385234703195 24.947428966380436
176 63 8 -4.781914427155022 -0.42042006945481886 24.574959557297706
177 63 8 -4.414114137386877 -0.5004307377043989 26.594766368385926
178 63 8 -3.0409462477402376 0.48647392730597316 26.296071136258746
179 63 8 -2.9176855365017627 -0.18555770919418446 27.737343527888896
180 63 8 -1.6364899957120451 0.33162110448705934 27.55544304351179
181 63 8 -1.1291990413289692 -0.12058227402692774 28.385522305232538
182 63 8 -1.3424489752679658 -1.071163950460272 28.247206713275396
183 63 8 0.4455853236144332 -1.7184778118891906 28.54393434705421
184 63 7 -0.2044356087862701 0.12098475879709764 28.238630215614766
1028 68 7 1.7023112326022198 -0.12669558166817402 26.617856700214478
1023 68 5 3.7708885356046205 -1.1201801876359225 25.873955151468525
187 31 7 1.5759106469191557 -1.2257126449312885 25.099148597531872
1091 68 9 0.8320496719912832 -2.4011946185222097 24.393566372932977
189 31 7 -0.4554391365115447 -2.840496823223645 23.43289882015833
190 31 7 -1.824813007040066 -1.7535880020139247 23.89582423057627
191 31 7 -1.706756258550316 -2.341938286515913 22.778537939160636
192 31 7 -2.737600703170782 -3.8087553996980623 23.9725615300121
193 31 7 -3.2762394556701064 -4.9021686144003755 23.341737691210284
194 31 7 -4.678747481425599 -6.22202890717519 22.571907583618668
195 31 7 -2.746046805141544 -6.587642404513931 22.574035485228695
196 31 7 -2.1361915734768666 -5.82007268581934 21.4659752910721
197 5 8 3.015262159464941 -2.5986965825650166 13.049052055542933
198 5 8 3.007298327768357 -3.5469327479003865 12.394661227038196
199 5 8 3.9979716656666984 -3.1547891827189862 12.339036832369978
200 5 8 2.710515140674326 -4.419125253304496 13.317801755625613
201 5 8 1.648798658340247 -2.8629510220756424 13.501249646702801
202 5 8 1.146503846246111 -1.5956178486327413 14.355371160246381
203 5 8 1.052187912707116 -2.9558941579890456 15.516877722764674
204 5 8 2.2536877255576675 -4.002567736370961 16.28646411220307
205 5 8 2.273777241833525 -2.5577101690451314 16.553415263236534
206 5 8 2.0044982484166507 -3.271781264107187 17.39771328612245
207 5 8 3.9320343171167247 -3.200250332245434 17.507125100709146
1056 68 5 2.943704994985392 -7.699608208075756 15.7342080617256
209 65 8 5.377770589800543 -2.722930352036476 16.845993905508042
210 65 8 5.089192368527904 -4.475263106126018 15.775468913363708
211 65 8 5.747918060981895 -3.1684241525269723 14.643224110993486
212 65 8 5.194757200107255 -3.3360559578148465 12.851837391571035
213 65 8 6.542718621864452 -3.5139180482091095 12.564222882125168
214 65 8 6.83902531992403 -1.6693485068451628 11.877156245432282
1080 68 10 6.13016906094796 -2.392272237254878 11.453477095853808
1019 68 4 6.424898689795437 0.5811709403715623 12.125524487106503
217 30 8 6.500501643529784 1.5596521337241351 8.542827447087634
218 30 8 6.239105655687736 0.11676537268773049 8.425651505524268
219 30 8 7.986665494280365 0.24717603042069772 8.74535211175943
220 30 8 7.586761250738336 0.8925516343984332 9.78205223394992
221 30 8 7.108423986771412 -0.3923058754174416 10.242737909811446
222 30 8 8.292905822134289 -0.13523018647984533 10.349764068281141
223 30 8 8.537128566434466 -0.5030809098607136 9.2154241579297
224 30 8 8.474567242161768 0.3685022551580237 7.7784933762515385
225 30 8 7.176259165404717 0.7154926401666403 7.21800793283547
226 30 8 8.08635692136308 0.7559464630580086 5.8698136531072915
227 30 8 7.316543257673565 0.8264089449971206 5.138785552150352
228 30 8 7.242352006636961 1.7890223673445227 4.340221215124056
229 30 8 8.04629533295463 2.4023999870993054 4.282636165738126
1054 68 10 9.527243915221172 0.763382790334841 5.124940405797736
1076 68 10 9.63359807294795 2.163247454099437 5.623179232182677
232 30 8 10.97387047487967 0.8940300893849112 6.659968802428825
233 30 7 10.506566894575727 0.39834728237298617 5.539598600123869
234 30 7 9.877731471479764 -1.2913956583158273 4.5750465126088
235 30 7 11.168207978981934 -2.400979989496521 3.8924063236308446
236 30 7 10.650606651872849 -3.364644647285494 3.1036802906673855
237 30 7 9.157546581549248 -4.3133090719385825 3.039659457930425
238 30 7 8.37144485883978 -4.6923375929140825 1.9858007968529707
239 30 7 6.481288238078024 -4.7088359497221415 1.544811205541268
240 30 7 6.419984411851814 -3.8546758687119373 2.766192597475283
241 30 7 6.5975792086271 -2.5994018477147787 2.7667102400900987
242 30 7 7.909802629940963 -3.2962635238356532 3.478337012195602
243 30 7 8.60503828613082 -2.997870623575087 1.9801779210996326
244 30 7 8.72521689046517 -1.6609176141101254 2.1323052165544034
1090 68 9 9.171717690936545 0.0019605196554298115 3.165314285719269
246 68 5 -0.5159861843017065 4.323063632491436 4.662414565796993
1052 68 5 -2.706497553375876 2.525101697292374 5.540343068204115
248 32 8 -5.109976937262909 2.766330612692582 5.713011965577206
249 32 8 -3.4687644115514455 1.4002917972540805 5.418111125600039
250 32 8 -2.915141107764298 2.112499452638095 4.368046944741799
251 32 8 -1.4028518885929893 1.4199502127552615 4.225950878274658
252 32 8 -1.5683267917494805 2.7537416276135556 4.981303433465495
253 32 8 -2.184940588032851 3.602268766609588 5.81025633281825
254 32 8 -1.7842246443565652 3.934893425294598 6.955049701367003
1071 68 10 -2.8921445228808795 4.397223885865089 7.062882823514744
256 32 8 -3.647171191392955 4.586301204149255 6.153480834168873
257 32 8 -3.8364264598827527 3.08249432545073 6.964128159519762
258 32 8 -3.9957882974325587 5.306787233352584 7.937818029184639
259 32 8 -4.530317334255092 6.295073780740199 8.214738620733826
260 32 8 -5.097887086304212 4.706928652777957 10.36580181822768
261 32 8 -4.583186188106433 3.630139953645447 9.323511014335413
262 32 8 -3.2254346628428365 2.428518477616423 10.231704949232956
1069 68 10 -4.41004230873876 2.688435942836698 10.152145030121432
264 32 8 -5.180932162100872 2.643433736474115 11.215675844478657
265 32 8 -4.455367755705523 2.274955341151833 12.294425277321947
266 32 8 -3.1289543913584903 1.7703543509548678 11.046105815225582
267 32 8 -2.0527708358107186 1.4621635134613362 10.784383436582193
268 32 8 -0.45701257010546237 0.10931308253061792 10.681979144341915
1034 68 4 -6.773349812877084 -0.9022313476208044 11.205738976393965
270 46 8 -4.598746313888192 -0.2818148104255563 14.294047205288365
271 46 8 -5.868370195167018 -1.4688712705683264 15.306413651271098
272 46 8 -4.6154385786329994 -2.042035788555661 14.680521794348975
273 46 8 -5.222502887281411 -3.391524571784493 14.233832394787617
274 46 8 -4.644446588791492 -3.865191198048524 13.049015935291212
275 46 8 -5.68359332473577 -4.117827115688576 11.381926155112652
276 46 8 -5.145374771636857 -4.6284499743948375 12.469788213447568
1047 68 5 -3.7360152169090055 -1.751475068752663 10.982828716567088
1012 68 4 -4.092772561745498 -2.018301180479262 6.5740545597654645
1026 68 4 -7.509952333838523 -7.1566286795669845 10.079985591836467
280 50 8 -7.479566172684513 -0.6095423594174139 8.294807872146736
281 50 8 -6.395933640140763 -1.5640027504331508 8.645319205572108
1075 68 4 -5.76016789608238 2.2581047261081264 9.400847488169891
1078 68 9 -4.209893241029967 -4.585138598929206 7.494369456380122
284 64 7 -4.813687728050799 -5.438792507537826 6.974313352200524
285 64 7 -4.978878052167324 -4.293547778135524 5.480719221457045
286 64 7 -5.837992502701613 -3.4527680136552013 4.577748443294212
287 64 7 -5.650505022577892 -1.51187219793753 5.406178297631796
288 64 7 -6.52297056769669 -3.595087533680685 5.72386454244168
289 64 7 -7.630092560842495 -4.644123811034767 5.500931379726152
290 64 7 -9.053099045095863 -3.7679187131202387 4.806343710978266
291 64 7 -10.163545400608955 -4.685790893812266 5.103512785766727
292 64 7 -11.406245218424687 -3.8082281071475252 4.2380657983122925
293 64 7 -11.75688571982622 -2.9675552104921117 4.939962682858247
294 64 7 -12.743713777525809 -3.2171563534274825 3.79046128425256
295 7 8 0.6282072219415965 13.401496368550111 5.940417634973144
296 7 8 1.981092924763484 13.30064499028279 5.472901207243779
297 7 8 1.1497697941290768 14.682571430480419 6.968512721306104
298 7 8 -0.3927860575347299 15.76940778191688 8.045554214490469
299 7 8 -0.16533446970314525 14.544539364697421 7.398712250893978
300 7 8 0.2539746669132776 12.842114067748712 7.521308987782622
301 7 8 -0.23330273805784216 13.209407896347493 8.657655263238297
302 7 8 -0.5744188289976208 14.015843467472747 9.52084638645542
303 7 8 -0.8935691435155957 13.109512209227704 9.859195359245842
304 7 8 0.6683114006741542 13.727853708051494 9.145397036888246
305 7 8 1.3293871410868685 13.585125494481895 8.294699172571109
306 7 8 0.3009103170861253 12.493792795887954 9.16669054263757
307 7 8 1.6800428550166318 12.223031791485504 9.582554035495377
308 7 8 2.836593548511393 11.664709284151563 9.431001376835814
309 7 8 3.9511226601659324 11.015143122914475 10.028180755365828
310 7 8 3.667020236704164 11.293866025480629 11.612584437647628
311 7 8 2.789321120243607 11.977252987737844 10.675461037873603
1011 68 5 6.592488921683558 8.610349864425283 5.312174771755787
313 45 8 3.042530625204286 8.023323135597602 8.92654514501982
314 45 8 3.4902918440706165 7.592472613216822 9.747321416800673
315 45 8 4.102342477571235 6.7643625047171 9.451426987551619
316 45 8 4.058898332917487 5.446338175607791 9.584081236036054
317 45 8 4.285471109698948 4.676618459507358 8.821613570083837
318 45 8 3.985140105458449 2.9275726136342457 9.094891024871018
319 45 8 3.998691161517369 2.519782714322105 7.539617100643248
320 45 8 3.8920578921070876 1.410350387327589 8.130202993012723
321 45 8 3.268245602061411 0.26526013681408445 6.162146969327954
322 45 8 2.883320689759109 1.260268240080363 6.213920159808122
323 45 8 2.625221827218131 3.281749508790495 6.686417432660995
324 45 8 1.4512060900562822 4.6803127937317255 7.708766683344696
325 45 8 0.38097067948811575 5.089262168221893 9.14830560457967
326 45 8 -1.0776711675137067 4.92809957914471 8.702028746072529
1064 68 5 0.5053169521036533 5.493036702290025 4.383378240453058
1088 68 8 -1.5030443198659666 1.690813164427632 7.115127863740343
329 49 8 -1.2749219042012054 2.780952248162695 8.17890459245894
330 49 8 -2.448420115050128 2.3130738888890208 8.486041655455487
331 49 7 -1.9043519919398153 1.1508655272658386 9.288823702559537
332 49 7 -1.2401577817315987 2.2651056821510105 9.368670384386023
333 49 7 -0.4639463338652973 3.444841787684491 10.314759556433154
334 49 7 0.6953977957662515 3.7235056605521137 10.346710593923383
335 49 7 0.5747080403816074 3.0648087303124147 12.004539387193391
336 49 7 1.815898955637259 4.518511202550658 12.823332596835902
337 49 7 1.2363491285669193 4.103159776330834 14.007946340510383
338 49 7 0.21716954977468172 4.291956390685823 14.82472677023707
339 49 7 0.42706570746380973 5.2122714864144815 15.554862679558662
340 49 7 0.9366569044218317 5.707782599115769 16.674483353409034
341 49 7 -0.25768773224319647 5.177722666947277 17.477657806029672
342 49 7 0.28831608633022315 6.080826505387498 18.711550040636087
343 49 7 0.2832133922672694 6.8070377399524435 20.165772245174796
344 8 8 7.44438911651494 19.027874631855752 -9.048706345509304
345 8 8 8.533427645323847 18.050852080899855 -7.787123205951665
346 8 8 8.204019149919683 18.331482562825116 -8.969933956394689
347 8 8 7.172510986569647 16.583408442686018 -8.014332432535857
348 8 8 7.672424875158732 17.06381321235248 -6.904901968178745
349 8 8 7.952888012470413 15.028739150419154 -6.932492435787066
350 8 8 7.830666659159936 14.055312375163249 -8.211744379593263
351 8 8 7.03065488276634 13.47283791467904 -9.021047455274232
352 8 8 7.023126413018686 14.85559296616952 -9.618993096516158
353 8 8 7.950633476311761 14.039641588820718 -10.37294499262873
354 8 8 7.169162302743447 14.04788659552604 -11.83643662427925
355 8 8 7.2330246610160165 13.06806119251564 -13.683525536172944
356 8 8 7.11776973337182 11.47561016137992 -13.352185358469843
357 8 8 6.799689454898327 11.222333439242005 -12.234641438225562
358 8 8 7.62803062752348 10.457463282080589 -13.38875641723071
359 8 8 8.359014166134928 10.134381610654495 -12.673745281205374
1057 68 8 8.464141365598246 7.074119647860068 -10.924118693439807
1048 68 5 8.372196051092608 8.405406255644955 -10.947166812630526
1066 68 4 11.265563487597557 6.571793605023395 -11.503603709535232
1051 68 5 14.09330935894891 7.707731993799151 -12.290873156510585
1077 68 5 7.133663369767226 2.6895266830217492 -11.861241787604676
1063 68 4 9.75292867123471 1.067827179055036 -9.96344459602912
366 35 8 9.349630669229766 2.2369476770854604 -11.111843476855933
367 35 8 9.27002489212015 1.175783039672934 -12.570763841111903
368 35 8 8.858547255541017 1.789672745986228 -14.03958498538832
369 35 8 7.653993329915084 2.8057331751521777 -13.244035850447615
370 35 8 6.876445319339193 2.0870888572452264 -12.92021762263355
1038 68 5 11.293937707644721 9.599438918733329 -13.1502704050173
1035 68 5 15.071903000415892 8.347320416648266 -18.91370829012672
1083 68 10 14.127914428073561 5.388397859203975 -18.604461394558847
374 43 8 12.260421549459215 6.415190385440857 -17.175621983861312
375 43 8 11.110896236249722 5.252715531965394 -17.262509107190223
376 43 8 11.61856061193906 3.606767172047766 -16.151774758262892
377 43 8 12.905708114457651 4.11616078210893 -16.925904918887383
378 43 8 12.905512508480209 3.537661580175375 -18.823765482974117
379 43 8 13.338435092407487 2.4405857016065022 -18.35938456886638
380 43 7 11.800303243256826 2.1267281830428 -18.16465125773169
381 43 7 12.034488060709283 2.5732342134041595 -19.599798324909354
382 43 7 11.468194935924002 1.3463535695925797 -20.415682331485424
383 43 7 11.211887290682084 0.2426719645172056 -20.325173061112388
384 43 7 12.679026004493121 -0.8549849178271131 -20.922520081761647
385 43 7 12.99916597282966 0.07515587291461642 -21.60283769491825
386 43 7 14.228058012156911 -0.3873385296190654 -21.38372256434384
387 43 7 14.706391449105771 -1.3688730156536528 -20.96371040580824
388 43 7 15.588263079299747 -1.0052762926326777 -22.214333885765157
389 43 7 16.567645730543855 -2.35486374218445 -23.54665490816315
390 43 7 16.99697581751441 -1.9660666437681953 -22.67967527753607
391 43 7 18.27972584787412 -0.18924093059254857 -22.3275052000998
392 43 7 19.208027920153846 -1.3738999871519952 -22.567578346776035
393 9 8 -4.887517765988336 -3.58803977236091 -16.747704265500232
394 9 8 -5.1675030291266975 -2.403097033170974 -15.815265644255849
395 9 8 -5.756376641770485 -3.3216947652551374 -14.706343296375039
396 9 8 -6.004309417602262 -3.8732075309978886 -13.45416923159777
397 9 8 -7.024239716703729 -4.58649357765519 -14.17028978091088
398 9 8 -8.939849897662079 -4.123951010455173 -14.139258446034866
399 9 8 -9.302448842687282 -3.0241414563802653 -14.423015323185522
400 9 8 -8.21066243670198 -3.2120509176106316 -14.169146493874466
401 9 8 -7.050250205108436 -1.8656688396016108 -14.128144870630543
402 9 8 -6.117191275751072 -2.342724652121897 -13.063945453599917
403 9 8 -4.703574106411549 -2.3353663516685654 -13.70278263152307
404 9 8 -4.9200229164642595 -1.3637619268340753 -13.431621476042116
405 9 8 -4.907360827665197 -0.6487896154313997 -11.988591796726816
406 9 8 -6.933672418257705 -1.4473879242475332 -11.559691770392575
407 9 8 -8.07895829278242 -1.3025026624585896 -10.564226284635655
408 9 8 -9.188502909653055 -2.6785182991791054 -10.573908382429753
1010 68 4 -2.573620803268748 0.07621192078230127 -9.909882299181987
1022 68 4 -7.695718729394591 4.146891382702848 -7.204312229210148
1016 68 4 -6.819630346462035 4.453446058745675 -6.601933019505226
1029 68 4 -1.4466198034315827 -2.1620985270710253 -7.205497920353195
413 52 8 -4.5847706445398915 -1.9772403652931674 -9.462714679366504
414 52 8 -4.434800465311312 -2.055241383889656 -7.867696627568313
415 52 8 -2.9821774255603004 -1.658913811744078 -7.860454838661272
416 52 8 -3.863782879876823 0.10031316049820564 -6.890018118155979
1021 68 5 -7.790090188722905 5.427599188460921 -8.992164991502497
418 33 8 -8.636497343709154 -1.2593141539606831 -8.340546019642586
419 33 8 -8.586829453125794 -0.9868111554894095 -6.768752778691686
420 33 8 -8.302386324877224 -1.0747957045934575 -5.397527598097773
421 33 8 -9.653795899158103 -1.9255505440630758 -5.368806039550557
422 33 8 -8.890509302792072 -1.9863158109928658 -7.195240473084466
423 33 8 -10.03321479926376 -2.1889312457933747 -6.524801546374449
424 33 8 -11.483596676272114 -3.417227111491137 -7.0901399239913605
425 33 8 -10.147335833051772 -4.040325835573007 -5.679275199836478
426 33 8 -10.360582166721894 -5.724730299546033 -5.222587067457152
427 33 8 -10.422361997559014 -4.5519789006528155 -6.57442731192469
428 33 8 -12.18587915272364 -5.4423843677119 -6.689203292206934
429 33 7 -12.773731284795666 -5.214137706664689 -7.856895723392139
430 33 7 -13.47946792913835 -6.332622943645649 -6.507335975249489
431 33 7 -13.058526636827994 -5.808656505672006 -5.63131854027943
432 33 7 -13.32817298176645 -6.754885060644275 -4.913556821953995
433 33 7 -13.17798426764941 -8.08206717441086 -5.56512432546302
434 33 7 -13.096669688094863 -9.316777714232945 -6.150038596752755
435 33 7 -13.476785303691365 -9.759511439172144 -7.526144911332455
436 33 7 -14.491315889623081 -9.071239095004694 -8.573631360902331
437 33 7 -15.22968219838676 -7.8331434599233924 -8.173053485520786
438 33 7 -15.462231878902092 -9.465845511521783 -7.621671939167254
439 33 7 -14.825641483312781 -8.637507012997064 -7.226335582335883
440 33 7 -15.891591593797202 -8.736193386987635 -6.503738121072007
441 33 7 -15.321078383257724 -9.4873022127256 -5.52536967251434
442 10 8 -1.2430269781274865 17.206958582710573 1.2971077185352522
443 10 8 -2.8341857581090215 17.807760435351543 2.023512315183189
444 10 8 -3.6235255064337415 16.86892335783429 1.6820299875516784
445 10 8 -4.718609371614545 16.4601650671594 0.8360633537213323
446 10 8 -4.58299309391586 15.544504161948408 -0.12529049629886996
447 10 8 -4.975917180749922 15.300946960900575 -1.4478188600812998
448 10 8 -4.6215073858779965 14.26870470483278 -2.3273958961931536
1082 68 10 -4.360620015624337 14.516492064104115 -3.9683645064938853
1093 68 10 -2.833029635404515 14.258727700242929 -4.490422035395326
451 10 8 -2.3289906530406816 13.49000681607833 -3.184798682185111
452 10 8 -1.8642834176652825 13.114643295902386 -1.7341988268818158
453 10 8 -1.7708766806067993 11.842708808256637 -0.21971764137760136
454 10 8 -1.345580424684847 10.983451010196077 0.5654753380371309