# Generated from readdy-to-lammps

1005 atoms
730 bonds

10 atom types
1 bond types

-30.0 30.0 xlo xhi
-30.0 30.0 ylo yhi
-30.0 30.0 zlo zhi

Masses

1 1.0
2 1.0
3 1.0
4 1.0
5 1.0
6 1.0
7 1.0
8 1.0
9 1.0
10 1.0

Atoms

1 1 8 -15.289966927746507 -9.78324974646184 -12.09188011645613
2 1 8 -15.471515953081916 -9.320224024851292 -13.48528619821463
3 1 8 -15.166824163596889 -8.640617920922336 -14.497940893597477
4 1 8 -14.202382551675687 -8.722450985707253 -14.927984976227506
5 1 8 -13.089840406077656 -8.41587954972855 -13.735515723188199
6 1 8 -12.197531073613892 -7.321823740526278 -14.064951587227162
7 1 8 -12.9820837846586 -6.076362239703085 -14.473743743159364
8 1 8 -12.062104185470028 -5.519987701347716 -13.339975333881448
9 1 8 -12.31030250967451 -5.927112092720867 -12.211960995536598
10 1 8 -11.91114848579574 -4.7577617620260275 -11.49573418452011
11 1 8 -11.220558625587689 -5.3257567225262115 -10.531123675647281
12 1 8 -10.740335284672959 -4.433721867370811 -10.832944657597972
13 1 8 -9.72816682346279 -4.925278881143899 -11.241769443085817
14 1 8 -8.836753110456222 -4.865806341536031 -12.035671518248364
15 1 8 -8.788021838054817 -6.469860579187091 -12.902190043686502
16 1 8 -7.521719347148043 -7.407426317003007 -13.25233292926975
17 1 8 -6.60773261987066 -7.305379125417206 -12.309643331814298
18 1 8 -8.130193243223093 -6.753131105023297 -11.718288032597451
19 1 8 -8.084238302269036 -7.344232570047899 -10.272476692065906
20 1 8 -8.92402628121906 -8.084721973867692 -9.699206611385428
21 1 8 -8.874827553060467 -9.41373100185923 -10.142116050742274
22 1 8 -7.9464947916280995 -8.482072989780844 -9.728788484537656
23 1 8 -6.8877352247512365 -8.402071714895166 -8.901654355460376
24 1 8 -6.773473556428762 -8.121011825446054 -7.186976624018545
25 1 8 -6.927342369005349 -7.636275196024728 -5.977730545344389
26 1 8 -5.327690201217673 -7.362679132510553 -7.271310709271496
27 1 8 -6.447184223997067 -6.581675405162912 -6.757324997969783
28 1 8 -4.8964162818121615 -6.273107517351852 -7.33068544168453
29 1 8 -4.134503899927376 -6.348565069726938 -8.181172870733606
30 1 8 -4.370257628848311 -6.946699861048734 -9.60985815739256
31 1 8 -3.4121818059611377 -6.845277536379931 -9.800138919355309
32 1 8 -3.9588824815621244 -5.574765512991344 -9.24023736592063
33 1 8 -2.3732795924206584 -5.868213315554659 -9.21538587334131
34 1 8 -1.8418863831459709 -5.653905081718455 -7.767883211936771
35 1 8 -0.7735202893241416 -6.8162839163487545 -8.291290786489515
36 1 8 -0.6801274268888134 -7.2710503305171 -9.392489771606451
37 1 7 -0.5926790970327628 -7.8828342989808 -10.891763268011633
38 1 7 -0.551856348111158 -7.135330524844782 -11.700239409599273
39 1 7 -2.0524753525046338 -8.337763387535572 -11.83692710518683
40 1 7 -2.8023291562557646 -6.792558590636311 -11.692958708100818
41 1 7 -2.8554528783085353 -6.553413962863836 -10.627731023578281
42 1 7 -3.261252443455304 -5.303442971564361 -11.115827500299606
43 1 7 -3.6344580585334514 -4.244508067049107 -12.026390283064067
44 1 7 -4.368271993995534 -5.591099068799095 -12.643100924684287
45 1 7 -3.396974787928643 -5.654475178656087 -14.368607798752404
46 1 7 -2.3842482973685444 -5.391614151884221 -13.672278774201828
47 1 7 -1.6383248754162996 -3.9807397506882696 -14.276352493369743
48 1 7 -0.7833858648463721 -3.536333608134413 -13.969847934357079
49 1 7 -1.6666815020800727 -3.0473670177189462 -14.789657869038628
50 2 8 3.9086661171954855 -1.9523354964185762 -2.866459943122396
51 2 8 2.908197387754227 -2.0263774795302907 -2.3028684315814356
52 2 8 2.197262865624774 -2.1345954948568946 -1.6007740668074786
53 2 8 1.4811835815186154 -2.3534829180478054 -0.4507987506842221
54 2 8 0.9953344557559666 -3.9188420861956463 -0.03149892752230953
55 2 8 0.6387853493569687 -4.669077001654686 0.9491608349276319
56 2 8 0.5624204086578714 -5.995161947973798 0.682721196272145
57 2 8 -0.056297359273121544 -7.218301434734821 0.5975364337831133
58 2 8 -0.2853563486360882 -6.388840810684479 2.010523742334077
59 2 8 -1.2903960985436764 -6.159143039264218 2.8372229238561086
60 2 8 -0.7816146055084301 -5.042910512333096 3.9143987670272145
61 2 8 -1.719853232586677 -4.748382331346379 5.187499711977782
62 2 8 -1.2417958975254721 -3.5517052392521173 4.816379333616193
63 2 8 -1.7831570664769896 -2.645191306273111 4.199965222619755
64 2 8 -2.0482405033716153 -3.2949152850753003 3.2155396652457835
65 2 8 -2.0067329976600017 -4.530617127065224 2.7697915215504683
66 2 8 -3.0764049380774705 -5.966894084445815 2.649039455734771
67 2 8 -3.4570761721069463 -4.938634487862825 2.8044477976538267
68 2 8 -3.0212649239789915 -3.9149425029264022 3.684067779215177
69 2 8 -4.070861546859672 -3.020539687691564 3.847892618417302
70 2 8 -3.056859892728747 -2.610256885152021 3.4484183082479554
71 2 8 -3.0613944825374597 -1.8825323610331965 4.691141482959507
72 2 8 -2.360356080496321 -0.28923790790501913 4.701092267352211
73 2 8 -1.7634485059330398 -0.9322035869212365 3.7789548450975703
74 2 8 -2.5473580019096778 -0.3795356895731549 2.7738325053882873
75 2 8 -2.4771315768061064 0.3109450804813249 1.6803795735962537
76 2 8 -3.0556566193315504 1.3113241427652675 1.3333621575534742
77 2 8 -4.006507559394202 2.058047900277087 2.29401160930159
78 2 8 -4.832098806193122 1.0300925004977652 2.713821234886179
79 2 8 -4.813713867959517 0.8089949801004523 3.91723264916388
80 2 8 -3.5856077769830104 0.23463923579264068 4.302469934017479
81 2 8 -3.7085639700471007 0.3357414771263755 3.1726309358979434
82 2 8 -3.6357005355989336 1.9934082640507735 3.3760335052934094
83 2 8 -2.423952149934114 2.9207887369831464 3.2658727994799825
84 2 8 -2.8429691187364647 1.0997829083976407 3.6230375995142348
85 2 8 -2.273058653008928 1.3820341184151927 4.448749094516601
86 2 7 -1.2746184526242643 1.2316155780528781 3.93602273967434
87 2 7 -0.5593871581918223 0.3034409305124793 3.6947931164477854
88 2 7 -0.859985824804347 -0.003368624503513709 2.1435258712094005
89 2 7 -0.06507725389452108 -0.6217604704053169 2.9635853847934346
90 2 7 0.9896675421447045 -1.5053236573433295 2.3199636698157327
91 2 7 0.44280265053408424 -0.26370117250992675 0.6066655249923296
92 2 7 0.9105829380365903 0.4088965870334119 -0.2930185035739985
93 2 7 -0.4800141223809585 0.16489076633672986 0.1015469727165394
94 2 7 -1.6278541611155561 1.4196048613056937 -0.632221966239859
95 2 7 -1.6097627164101205 0.3160243414092336 -0.3612146654072168
96 2 7 -2.4961708339730464 -0.23837445091079335 0.3029871661067797
97 2 7 -1.6583363306121597 -1.0411314734246073 0.16674033323877097
98 2 7 -1.1284876354865252 -1.7772583040117262 -0.4017779529495765
99 3 8 -2.58931169842335 -7.15994590668546 -0.6815243122555577
100 3 8 -2.0640970751760053 -7.995104651409213 0.30532864929228526
101 3 8 -2.1510166279719094 -7.371325008150245 1.2578285384892507
102 3 8 -2.8099857201414484 -6.889935368731245 2.206761212758546
103 3 8 -4.080357627223414 -6.849140110638815 1.8776094184043244
104 3 8 -3.698076711216491 -8.323793065052943 0.9429270598199313
105 3 8 -3.6887377103658525 -7.728600384152286 0.06240554682858109
106 3 8 -3.9841092265479854 -6.545572962848403 -1.907462321267886
107 3 8 -3.5936820554911337 -7.654938055803217 -1.97236166805574
108 3 8 -4.162462951691872 -8.77113520027247 -1.6066091978350505
109 3 8 -3.477115791016028 -9.10569340475361 -2.451950432205612
110 3 8 -3.398680234129526 -9.972320305014351 -1.7808447690832687
111 3 8 -3.5342882598891827 -9.458859020939006 -0.6501037119165632
112 3 8 -3.831554187795359 -10.33118795112579 -0.13054713366858006
113 3 8 -3.6715582809093106 -10.787504487366256 -1.1293987244630315
114 3 8 -4.1286803138496415 -12.17225325989626 -0.6635706933556642
115 3 8 -4.5248146140412775 -11.184185874887826 -0.18024567912171
116 3 8 -5.08038890537346 -10.405842141822378 0.7886618723665015
117 3 8 -3.967743658401089 -9.276207334539718 0.9017032035172449
118 3 8 -4.725292785495788 -8.280100209276732 1.0224782361196056
119 3 8 -6.026921050646713 -8.467259946620945 1.9080574199895721
120 3 8 -5.226749402018927 -8.490501442657898 2.571453085481793
121 3 8 -5.02699854567648 -7.547043133555997 3.7581909799140143
122 3 8 -4.660725692907957 -8.533670511252913 4.4896884669331465
123 3 8 -3.533557100423485 -9.409879035654647 5.409380876266958
124 3 8 -2.482470420265715 -8.434988987434938 5.667165974944707
125 3 8 -0.9341010828918899 -8.70098104042016 4.547059987763061
126 3 8 -1.743013401487151 -9.375325245483973 3.539693506551235
127 3 8 -2.8658586834314517 -9.173094620042058 4.5611074349199034
128 3 8 -2.275144690882177 -10.477364867099714 4.602409168916716
129 3 8 -3.0109363135912344 -11.75264449782035 4.044893834156229
130 3 8 -4.210621826877189 -12.253132677004983 3.4627919280018857
131 3 8 -4.719417365921901 -12.959343802252759 2.539150158122576
132 3 8 -5.692246255730687 -12.65145907927015 1.9819042745751838
133 3 8 -6.519055098153787 -13.615884957161867 2.085824481326977
134 3 8 -6.546373138863152 -14.26577910709542 0.9587152258393021
135 3 7 -5.310578251555434 -14.738825343874948 1.4071475758981928
136 3 7 -4.612843454950674 -16.488708231708266 1.94993694161574
137 3 7 -4.888586241783652 -16.151115127614236 0.9739751850315314
138 3 7 -5.483516007626195 -16.264051403983714 -0.04806605631659776
139 3 7 -4.59567986860668 -16.233813463823708 -0.7624763951168068
140 3 7 -3.8394419736886016 -15.43147428470542 -0.120089101765406
141 3 7 -4.080845740074049 -14.325318084567707 -0.08184593008983042
142 3 7 -4.82768890931697 -13.940694725731614 0.3523562057922247
143 3 7 -3.618153518103171 -14.325171586928763 0.7986573684511988
144 3 7 -3.518919364047189 -14.250407111254729 2.553013010807967
145 3 7 -2.7787063274069594 -14.279533730354952 3.563928202691335
146 3 7 -2.8409377297292613 -13.183018728165688 4.006908382440732
147 3 7 -2.427568162234006 -13.279106103784338 5.7917866146492
148 4 8 -1.5273302605007457 12.225567276950873 16.610415360818028
149 4 8 -1.7593882970120838 10.688238550340577 16.11620356695648
150 4 8 -2.2932643872222616 10.741240887903594 17.3168110070266
151 4 8 -1.1551714518422418 11.433129228464578 17.85266240403633
152 4 8 -0.9871199581129642 10.183956478304653 18.054553181623753
153 4 8 -1.1270733906571304 9.466826942409083 17.156089797638145
154 4 8 -2.104049117869089 8.922522489896776 17.020044782219326
155 4 8 -2.9542410467381757 8.489724043642555 16.27004473871325
156 4 8 -4.23941913844198 8.762428825354128 16.588892260027826
157 4 8 -4.083523385364921 7.648988980723397 16.96544793316752
158 4 8 -3.0764570989374787 7.327352081106817 16.819690272813762
159 4 8 -1.9480951776342958 6.693205047466952 16.832693338610763
160 4 8 -2.5177214083335677 6.8912062899978945 17.7867562485027
161 4 8 -1.5081231693286012 5.554000385676103 18.619818003522383
162 4 8 -2.373719677678056 5.062140910473553 19.402090531911107
163 4 8 -3.4488045570156887 5.225595952571309 20.227516519062743
164 4 8 -4.898241629430242 6.190116459552277 21.61081383629218
165 4 8 -5.321458954442879 7.100571942128058 21.240226872006385
166 4 8 -6.266931960118476 6.961652313924899 21.6632514466289
167 4 8 -5.484172853319874 6.8520276955130495 22.61465940866945
168 4 8 -6.190109696327743 7.119309616862298 23.467805993628463
169 4 8 -5.081749563262998 6.279955963351909 24.30582498596192
170 4 8 -5.680961786726731 5.918150467834876 25.482376543682655
171 4 8 -4.786599340409971 5.027308477468278 24.49937252597588
172 4 8 -4.327321202915907 4.0388701949951225 24.628841363753843
173 4 8 -4.944369551647426 3.062573033751271 24.49807974486463
174 4 8 -3.9266451136437626 2.828313328997695 25.361969810771257
175 4 8 -3.362929346000931 1.9419282322708795 24.660784752589002
176 4 8 -3.97661722782386 1.2657616976678299 25.862177879659093
177 4 8 -3.2611386102769226 -0.13783339044827908 26.19910571049881
178 4 8 -2.9570900550438015 -1.0790619254263853 26.54197100304582
179 4 8 -4.133322605899173 -1.4085264564092193 27.144727564085688
180 4 8 -4.650258548297249 -0.08385991578810068 26.819997163073307
181 4 8 -3.6980612427911157 -0.5381119356504571 27.58494979792478
182 4 8 -2.376118761070524 -0.1747001874112982 27.816874647397295
183 4 8 -1.4183675072154398 -0.15951254373440124 27.175936785574923
184 4 7 -0.515207144437048 0.3169910585425447 27.209895111350665
185 4 7 0.9742756207134953 0.12263171394268428 27.17531733245692
186 4 7 0.4239551394480168 -0.21336468255549948 25.858784945692875
187 4 7 -0.8109566406976131 0.2163286568830017 25.489454149535014
188 4 7 -1.0590436118468733 -0.8943672563521218 25.399868059688615
189 4 7 -1.2990089606399937 -2.4313756272156417 24.530212027596164
190 4 7 -1.4556573218741111 -2.90338929551005 23.466735486021687
191 4 7 -1.8235718254937046 -3.4995787258075204 22.888500144752165
192 4 7 -2.334201011172359 -4.342266733636451 22.527755220246906
193 4 7 -2.8929899361440685 -4.9078558446851375 23.56506266605451
194 4 7 -2.7170104190499775 -5.673509931191751 22.78072992515589
195 4 7 -1.438424152490029 -6.344545016772236 23.201453639051273
196 4 7 -0.9503886509967513 -7.2906307490948175 23.284872106677465
197 5 8 -0.37152272495265004 -5.159834720743493 11.823246218654914
198 5 8 -0.13556049115347335 -3.9002639234972953 13.000517750700011
199 5 8 -0.8040059458303381 -4.64485826168938 14.70623076185048
200 5 8 0.3275944588867952 -4.039055796836624 14.030551410521896
201 5 8 1.3502893083936667 -3.4784934556300624 14.470340488990173
202 5 8 1.704566141057616 -3.2774626841934458 16.06328990888959
203 5 8 3.225520039447255 -3.5806398586565757 16.217068002861772
204 5 8 3.0763747795218714 -3.2673415671279114 17.256330381897705
205 5 8 3.8597534468538433 -2.021155808276668 16.671056308625243
206 5 8 3.712347780002205 -0.9942661025272967 16.664866363842524
207 5 8 3.8581045903016133 -1.87430245520356 15.542864204757462
208 5 8 3.5590168283876693 -2.549552236827375 14.144736933606387
209 5 8 4.270323366121682 -2.632892549251873 15.009366642144252
210 5 8 5.818961886783711 -2.782706685898018 15.562006582562177
211 5 8 6.665162276194609 -1.6030789274850128 15.255891174057412
212 5 8 7.365589848955538 -1.778654342430155 14.383911128977836
213 5 8 7.1916412724042384 -0.7611478196355593 14.462319049667158
214 5 8 6.441412400803408 0.1266752237733807 13.071683491934126
215 5 8 5.344271611365519 0.5787564984642766 11.936453357381236
216 5 8 5.664399759547878 -0.0891271160793578 11.11959598882594
217 5 8 6.5107428506214955 0.5756763133944519 10.780235388845785
218 5 8 6.629286138316781 1.2265305559454966 9.42976516153051
219 5 8 7.582528429996661 1.077560993559389 8.620523849759966
220 5 8 8.914522023702045 1.4755834437107802 8.555967061023669
221 5 8 8.830687847545306 0.8512995146408935 9.696347477403732
222 5 8 7.724306972561098 -0.1842955241111433 8.673045900429532
223 5 8 8.258557111099824 -0.18020281366489257 7.487419197919108
224 5 8 8.172452753204352 1.2679361257235071 7.113554769132266
225 5 8 8.462544118291461 1.6767568346403585 5.949826139880775
226 5 8 8.794988842162144 1.3761667705852847 4.114253591881249
227 5 8 7.971371962912066 1.902544350888351 3.434944063376748
228 5 8 7.980192147825091 1.205907460280233 2.4992891160506288
229 5 8 9.115480175556058 1.645326559930375 3.068142374814235
230 5 8 9.257350728047891 0.8040090300080325 2.5634717988535565
231 5 8 7.904155801527 0.043681337266905804 2.9513291020271346
232 5 8 8.048789094956314 -0.8033661676699473 2.080767927104497
233 5 7 9.486003973310687 -1.324894749572643 1.5217637560665338
234 5 7 8.465499146800743 -2.21642943220491 2.157659578431665
235 5 7 8.514135780398124 -3.3380351190577593 1.314054845571711
236 5 7 9.173079475702098 -4.142886050987124 2.136258393650401
237 5 7 7.71732392679025 -4.6649373106559615 1.6691159792487653
238 5 7 6.701650243642289 -5.357066725265604 2.7041668200737496
239 5 7 5.877116342138295 -5.484016748216186 2.0049049627907576
240 5 7 4.8151928443519605 -4.267390474270873 1.1966609474566283
241 5 7 4.963515889827786 -3.2775024598401825 2.410794316219294
242 5 7 5.523929527011553 -3.230550837625361 3.4974986259017378
243 5 7 6.5839610180103545 -1.8591384726476934 4.240768523596766
244 5 7 7.4978927337196195 -2.6888397218885904 4.693374602419301
245 5 7 7.736685065675212 -1.6353382052493384 4.149952240886095
246 6 8 -1.8456542289844395 2.8155013399602438 4.383802416176597
247 6 8 -2.809021693118067 2.7518915570570153 5.1100777674067315
248 6 8 -3.013784463197538 2.1721725281093294 4.336944467891291
249 6 8 -3.545016522231383 3.169275281302253 3.565618844800952
250 6 8 -1.994715698001169 3.7064311527358598 2.8592619647130992
251 6 8 -1.419211325315139 4.4141092135867055 3.2854382031902434
252 6 8 -0.9104222841075661 3.8542451661220967 4.787397088766077
253 6 8 -0.754217748288909 5.080034118767225 4.442025023408711
254 6 8 -1.477990360793515 5.226442157652136 5.6722808711542205
255 6 8 -2.7519621972570847 4.620903007665781 6.747210887934341
256 6 8 -1.6644375943588459 4.408093898919279 7.275551978570631
257 6 8 -1.5256953991250861 4.696542285728983 8.429071961573724
258 6 8 -2.96745439509451 4.779652900342404 8.292107705517573
259 6 8 -4.734380110017914 5.053514119794333 8.14295252330837
260 6 8 -4.601014367035725 5.784761788722172 9.235222697651402
261 6 8 -4.028613462864422 5.6659335926241035 10.400657824733056
262 6 8 -3.507760013675026 5.833816283869323 11.21537614130412
263 6 8 -3.1826932042621014 4.261337281310502 10.076604655639821
264 6 8 -4.115103072295585 3.7436440496364876 10.086662871668121
265 6 8 -4.060180280845556 2.4629889546281167 9.82200859652374
266 6 8 -3.4937215364652183 2.33634399189903 10.78522188921029
267 6 8 -3.3500714640214864 1.9854175572808859 11.817336276857574
268 6 8 -4.084417163427987 0.6902876703238127 11.457476972923141
269 6 8 -2.9893981255276136 0.3097511028555745 11.457746501160212
270 6 8 -2.9499371597803834 -0.9071355373477995 11.121524672751534
271 6 8 -3.3095932006098923 -1.5365648814833528 11.839906692772185
272 6 8 -4.425383618168763 -1.7761165945868762 12.054225246781384
273 6 8 -3.3986434498014075 -3.043008376889364 11.939272756653635
274 6 8 -4.648490862142712 -3.371328607713279 12.21666098320399
275 6 8 -4.38854336637822 -3.0365517935520847 11.002163992503991
276 6 8 -3.2217699973929332 -2.4839605686900463 10.326856410789269
277 6 8 -2.139677781413914 -2.714946998973302 8.91233919085112
278 6 8 -3.1485298687506176 -2.158639889434189 9.180202514065154
279 6 8 -3.7782398064658573 -1.6637372563671173 8.05332866214068
280 6 8 -4.504009893206164 -2.9567214305085847 7.142420145504261
281 6 8 -4.728781920297525 -1.9066164814976667 7.582709349574019
282 6 7 -5.515039027343587 -3.2306670417739194 8.222848110440252
283 6 7 -4.432087721230135 -3.9458958963910633 7.0637938008774315
284 6 7 -5.165843412666943 -3.1294230418217914 6.40407518373113
285 6 7 -6.527107225670352 -3.1152413571685513 6.635583541437114
286 6 7 -6.985740621208115 -3.801389275170196 7.369572848129046
287 6 7 -7.825653248468028 -4.566143317786357 6.991236562295661
288 6 7 -6.979704011473697 -5.104066519886793 6.4487586003893185
289 6 7 -7.301812189781727 -5.581970340755929 5.287721290299492
290 6 7 -8.26463650804058 -6.006420654903619 5.798444002016637
291 6 7 -8.628218044963283 -5.063152711380822 4.684257552363788
292 6 7 -9.511562917073903 -4.4953418899365944 5.611326825858411
293 6 7 -8.84618044085738 -3.5680852407779087 5.5254499658317675
294 6 7 -9.351317566157174 -2.6636722624384976 6.075225320704213
295 7 8 3.4186488521381015 13.954834196657691 6.378300759615062
296 7 8 4.053293488274629 14.130840938935341 7.697398112793259
297 7 8 3.968800437357849 13.235032644571094 8.488032793057416
298 7 8 2.872268309419132 12.734970967228518 8.4800610185374
299 7 8 2.4290452231666517 13.474567466747462 7.3074501417485545
300 7 8 1.2651360994772054 13.020768241815983 7.800584263174419
301 7 8 0.6725390149957815 13.664277642628813 8.627940352118319
302 7 8 0.35473045820915305 15.088701429508864 8.503309914456576
303 7 8 0.6536889840948163 14.672524253329293 10.129077782221902
304 7 8 0.4138812112872469 13.178474751022916 11.38344692036217
305 7 8 1.4755774955082839 11.942945576787332 11.183575116136188
306 7 8 1.2651675917335967 10.93884145853676 11.625404673971362
307 7 8 1.7084546298821224 10.830606426638697 10.557843260898451
308 7 8 2.2777385177839196 10.508711992524919 11.34829092302563
309 7 8 3.340052553454363 10.667174957578087 10.079313922568133
310 7 8 4.815586161596711 10.805310230892058 8.600530952613278
311 7 8 4.486440927097128 9.497737972110043 7.9869613482082675
312 7 8 5.592880212535707 8.443981360610225 8.325862670357967
313 7 8 4.324575398638593 8.84891331548825 8.74439414486699
314 7 8 3.7799215614290596 7.834797260584287 7.958516368470666
315 7 8 3.192164220360044 6.721388420523932 8.156286747431734
316 7 8 3.5403476344643434 5.611930089606559 7.831335965998248
317 7 8 2.808663460446375 5.234362484904439 7.125089791417545
318 7 8 2.3054459402682164 4.158985162330865 7.475019874732529
319 7 8 1.6325207667910484 3.610953465238159 6.4161689444241325
320 7 8 1.7672420781057205 1.997648556398934 6.022147005320182
321 7 8 1.604829619109898 2.3777605497675744 7.421867710045865
322 7 8 0.8036124823142896 2.03434308636445 6.460633519077517
323 7 8 0.917460230650925 1.1415413183260235 7.658844939051254
324 7 8 0.5924429668459221 2.211359807586066 7.84968681678333
325 7 8 -0.05058217118000028 3.588010629941161 7.546578823681105
326 7 8 0.32199042503183983 3.890369784964188 8.57439819539271
327 7 8 0.16063204199521441 5.181456988028893 8.120258066852788
328 7 8 -0.6439011119092126 4.664283928994279 9.439497908891383
329 7 8 -0.7003774967216331 3.3376031640957304 9.445600490279027
330 7 8 -0.47378505828164313 2.0293124377534997 9.699521836023017
331 7 7 -0.7952336395249323 2.1129290467506405 11.100068957493708
332 7 7 0.06902162950980166 2.802692518562829 10.714871387718171
333 7 7 0.3335274031026361 2.96599166670953 12.19888881136626
334 7 7 -0.2292135466173342 2.5274641410148706 13.364261301044781
335 7 7 0.983277356178772 2.8117543669616087 12.951323638712351
336 7 7 0.7991085098875046 3.922854508052847 12.778330646022965
337 7 7 -0.1085301036988558 4.640599678678494 11.58275809610928
338 7 7 0.9938338695604426 4.7784838267923915 11.91894932577508
339 7 7 1.6614509973355214 5.8213288660687414 12.267228491263001
340 7 7 2.2202333162809813 5.506158225304882 13.843963670490258
341 7 7 2.506832092522152 5.58701879598965 15.00893949918853
342 7 7 3.311149226207908 5.22730046386458 15.747880728688544
343 7 7 2.38308243359166 6.030139953450834 16.198062327249477
344 8 8 7.098013337315979 19.25211182400088 -8.450725710166648
345 8 8 6.417022897963416 18.591804751442304 -7.312141872326493
346 8 8 6.919604312133726 16.978641401172812 -7.248838459313253
347 8 8 7.439479663415777 16.08419589623292 -7.445940678241552
348 8 8 8.492724082686692 16.66354496541247 -8.314422665749369
349 8 8 8.932019172765052 16.027245367606007 -9.253514525997101
350 8 8 7.590805968988319 16.038881835736365 -8.885263008533867
351 8 8 7.082032417152739 16.095829560919544 -10.077385281702844
352 8 8 6.2803718410812 16.2191139805552 -10.925001913687174
353 8 8 6.239016526918877 15.129022373832626 -11.0086111693915
354 8 8 5.932842459448352 13.989691982259826 -10.92149443993891
355 8 8 6.23897612097428 12.902803345152694 -11.462276024791636
356 8 8 7.484061796218313 12.740701360259212 -11.413202040506441
357 8 8 8.68641170487179 12.024211042667872 -10.6093891731577
358 8 8 9.243470161420209 11.00209795274055 -9.466010882421473
359 8 8 9.865592271654918 11.489868725421493 -10.782009249848274
360 8 8 9.567502321601447 10.164760430609853 -11.013016695906568
361 8 8 10.615605761341033 10.032257974633565 -11.634072504232915
362 8 8 11.332046267691409 9.270770742516719 -11.719482819367482
363 8 8 10.435443810917203 8.975874495404515 -12.74907194726531
364 8 8 9.921688132214772 7.749727813610164 -12.868058727328194
365 8 8 9.969194293907577 6.6991532926190205 -13.630776252512714
366 8 8 8.697368027846666 6.330003539965893 -13.74374044053083
367 8 8 8.510054353050784 4.803810561137682 -13.549201508176761
368 8 8 8.162521195719187 3.573483270094763 -14.473335402878106
369 8 8 8.005464219473346 3.7532980116825576 -15.692055593431045
370 8 8 8.510783518358028 4.819956948169305 -14.936496415085173
371 8 8 9.796345460654408 4.73432247313377 -15.571138066297747
372 8 8 10.776252282789152 4.778304575221625 -16.851445087147525
373 8 8 11.771634735021955 4.689360609225839 -16.148706268138763
374 8 8 12.782539107413537 3.0757480452691164 -15.597591247824676
375 8 8 12.350296153539645 2.194744417107747 -16.415747407106537
376 8 8 11.967173429817553 2.189461038600225 -17.59775018143811
377 8 8 12.114024105657094 3.7276252152337697 -18.344260213312946
378 8 8 12.880433587411524 3.71838190843783 -19.43939020770974
379 8 8 13.622518809908117 2.7067831234429405 -19.463183787299613
380 8 7 12.884836112463756 1.0915741544151385 -19.369203123526535
381 8 7 13.63284779957108 0.58840253535616 -18.599147314069445
382 8 7 14.087193519268618 -0.21412927061722217 -19.009816759915115
383 8 7 13.920482031332655 0.8429779308699811 -19.972858282443212
384 8 7 13.986082880555818 -0.03110118405763022 -21.37379233135713
385 8 7 14.47139429900746 -1.032132848368333 -22.445901856045143
386 8 7 14.316660819988781 0.10116775438423545 -22.82863311129459
387 8 7 15.55445288369962 -0.17255259382214028 -22.67022731706792
388 8 7 16.50665478382266 -0.6899727394661 -22.861385618242927
389 8 7 17.015967677220218 -1.041306665557512 -21.90875883043289
390 8 7 17.89647594593468 -0.46416526036931394 -21.09757907034875
391 8 7 17.613763335138938 0.5948825712869485 -20.76760361098104
392 8 7 16.693357042206312 -0.6196082012175962 -20.203347229609694
393 9 8 -6.8209652041726905 -4.9634590253704305 -13.594053227761174
394 9 8 -5.73004013570022 -5.615935038850298 -14.760760371630766
395 9 8 -6.898530350089018 -4.869431541025685 -14.647408958689502
396 9 8 -7.234882022222562 -3.8185282018886926 -14.382802460573739
397 9 8 -6.718199605692526 -3.1504213173672393 -13.446485479093912
398 9 8 -7.827148377516296 -3.486314750029773 -13.17129902750832
399 9 8 -7.748571019274104 -2.6355202914849003 -12.284756568445205
400 9 8 -7.537064421835515 -1.9645605913840691 -13.229678895061811
401 9 8 -5.835937996838556 -1.4518668577991805 -13.734861609696631
402 9 8 -6.203175729562236 -0.5834600692501155 -13.052868214966152
403 9 8 -5.452406407943825 -0.41231616661450865 -12.32714588938896
404 9 8 -5.461213237305106 -0.30561611186264487 -11.275288523484228
405 9 8 -4.800658986500456 0.26673365224842194 -12.706696481692251
406 9 8 -6.116327650203263 1.287662056142433 -12.213549387835162
407 9 8 -7.087558072205505 0.9168577643517418 -11.22068779115312
408 9 8 -7.672885908999794 1.0820052447998225 -9.848880054721155
409 9 8 -6.610535573177501 1.9418960822498916 -8.904534577572829
410 9 8 -6.0064615197476146 1.1004819417080007 -10.202551350875762
411 9 8 -4.900742425108284 1.8638751991324483 -9.70794360960987
412 9 8 -4.850567016942266 0.7463634537523215 -8.865981021178547
413 9 8 -3.6255184049028917 0.8592412548340462 -9.069306352826345
414 9 8 -4.805899981387527 0.5825688115301781 -7.711835861853099
415 9 8 -5.537138787307941 -0.18882797431826345 -8.292391274980838
416 9 8 -7.160976621962409 -0.9004619623849617 -7.167303341756789
417 9 8 -7.091367195034584 -0.29185432323870064 -5.758476926018609
418 9 8 -8.303388150153962 -1.4114215021895744 -5.805772303806522
419 9 8 -9.318784089368688 -0.6942952519487244 -5.847289593973044
420 9 8 -10.681363748948641 -1.1272094783134585 -5.386217792983456
421 9 8 -10.512292844237782 -0.33913529463761116 -6.375102864366617
422 9 8 -10.7563204832419 -2.0041070131427805 -6.176896837835258
423 9 8 -11.669377274786113 -2.616383856775998 -5.514293070494429
424 9 8 -11.36706879982455 -4.113787683622155 -6.166847371077789
425 9 8 -12.193626677238138 -4.712354659636924 -7.10478129234599
426 9 8 -12.468263002090607 -3.365083662527121 -7.855817540473329
427 9 8 -12.829684293977438 -4.786173948292139 -7.9837864998421
428 9 8 -13.234031906056087 -6.09111589012711 -8.188647407820499
429 9 7 -14.305366975693376 -5.2321170057579875 -7.832547856639138
430 9 7 -14.849927042926435 -5.019532341111775 -6.980364132578328
431 9 7 -15.24702002370824 -5.032984881108939 -5.7608220361346
432 9 7 -14.7586416916757 -6.057389631189463 -5.353597372977793
433 9 7 -14.863053760552525 -7.259009152965351 -5.078842067579661
434 9 7 -14.439709074937022 -8.473680367337579 -5.571810235442537
435 9 7 -14.521870034722856 -7.1831071486438605 -6.170472860599663
436 9 7 -14.246880023183033 -8.570675877273061 -7.3572093429981145
437 9 7 -14.70955638567726 -7.877103174420666 -7.715482986290033
438 9 7 -15.384729300444906 -6.950198609810716 -7.879699897040085
439 9 7 -16.746403338381885 -6.847494453643001 -6.8132795449109045
440 9 7 -17.740712398853173 -6.72749591572472 -5.467915895511245
441 9 7 -17.300676610583213 -6.055945391584183 -4.653303313236505
442 10 8 0.07270803954591784 16.120832315187258 -1.122296818049019
443 10 8 -0.9047325503744201 15.329834162928362 -1.0851626782612365
444 10 8 -0.8600085179713841 16.19309975321223 -2.2713414973189643
445 10 8 -2.2296534208622205 17.159923831403706 -2.0396384568290604
446 10 8 -2.7992464200843474 15.981963268351729 -1.2240957815454987
447 10 8 -3.5621830419901035 15.364291438767555 -1.6587569629998125
448 10 8 -4.1769778188378455 14.243324172036493 -0.2076046880400862
449 10 8 -3.566905872203491 13.657028764680048 -0.9594466076243109
450 10 8 -2.39222750222632 12.948383057714219 -0.14240954165126293
451 10 8 -1.9711150000357232 12.118887960184077 -0.5180030979808133
452 10 8 -1.6992937636619303 11.474952083993795 -1.7678340129926364
453 10 8 -2.6629616083914143 12.213583445961616 -2.0330185059730477
454 10 8 -3.002788414113492 11.163816520506272 -3.185499062349028
455 10 8 -2.301474736085669 9.451666990445126 -2.9823911781396517
456 10 8 -2.060027558012317 10.154036760188871 -1.5708514773807616
457 10 8 -1.2608047824679292 10.670440169827003 -0.9302263861084477
458 10 8 -1.2035224910457363 9.676825432981474 -2.075975391172799
459 10 8 0.1065485169284685 9.903388310061896 -2.000981323731714