# Generated from readdy-to-lammps

1005 atoms
650 bonds

10 atom types
1 bond types

-30.0 30.0 xlo xhi
-30.0 30.0 ylo yhi
-30.0 30.0 zlo zhi

Masses

1 1.0
2 1.0
3 1.0
4 1.0
5 1.0
6 1.0
7 1.0
8 1.0
9 1.0
10 1.0

Atoms

1 1 8 -15.10829980724017 -8.600966813794473 -11.086550428931483
2 1 8 -14.268378697401657 -9.92094603839711 -11.650288710176007
3 1 8 -13.432315212369607 -10.260161768916612 -12.725943751516398
4 1 8 -13.78221301646622 -9.509869363133836 -13.571699869401092
5 1 8 -12.351946679266693 -8.49095053642265 -13.841539291390974
6 1 8 -12.15278985542953 -7.685531656912941 -14.456163252790784
7 1 8 -12.23853617916522 -7.201726054744441 -13.35746352119598
8 1 8 -13.305624257186158 -5.800477428588231 -12.445833939465016
9 1 8 -11.88358100864446 -5.759041583578178 -11.3488180348366
10 1 8 -10.86142676720204 -5.756470921852042 -12.893928872064638
11 1 8 -10.455988129335681 -5.215838915763358 -13.900414477614557
12 1 8 -9.757629761867364 -4.637589709830526 -12.314941861534205
13 1 8 -9.149035202905802 -5.66373756045156 -13.159162025125156
14 1 8 -8.08220424600733 -5.223327700298232 -13.451100420134521
15 1 8 -7.543024761839048 -6.771835649165936 -11.989119510397979
16 1 8 -7.300694381533515 -7.148930477900632 -10.932263752020363
17 1 8 -6.645676458718903 -7.9474815951572975 -10.371952921089422
18 1 8 -6.478099327566253 -6.859459406776258 -9.591719313497384
19 1 8 -7.298075877889354 -8.89238204914982 -9.504287480800384
20 1 8 -8.339985848716497 -9.004144633413635 -9.4642581679868
21 1 8 -7.907761127074531 -8.11803130382708 -8.54488130707863
22 1 8 -8.775077340708707 -8.95312114247089 -7.377277206454882
23 1 8 -7.720358662725196 -8.869681230125074 -6.208668156647299
24 1 8 -7.760624778782631 -10.749346216687604 -6.456324833322246
25 1 8 -7.693922696717658 -10.016749721921203 -7.728139283144318
26 1 8 -6.18609467125582 -10.035003153274511 -8.394913225853507
27 1 8 -4.424077265477841 -9.15977937501152 -7.539243382681623
28 1 8 -3.629197726670494 -7.987430223677512 -7.987218627278101
29 1 8 -4.4353668100443056 -7.073746925438362 -8.306539627750322
30 1 8 -4.150270776978852 -7.593123285575714 -9.784679680795074
31 1 8 -4.781843571238367 -9.045951266696425 -11.010981105325504
32 1 8 -2.9879893546263117 -9.454621118650218 -11.247590824596413
33 1 8 -2.865395304437128 -7.898942033426404 -10.709141304949421
34 1 8 -1.9595716602732691 -7.422318284573337 -10.400197687567214
35 1 8 -2.1530936156194627 -8.462736316361767 -11.4574069911625
36 1 8 -1.3929294989844958 -8.509863588298122 -12.596610361186238
37 1 7 -0.15512790129225218 -7.962237734525035 -12.490750893757255
38 1 7 -0.5773233153466477 -8.661054817835364 -11.076896747584094
39 1 7 -1.5357910513228932 -7.620057123972329 -11.218507655713763
40 1 7 -3.555038613603777 -7.56483613237797 -12.489314340664004
41 1 7 -3.890377504027432 -8.65799476771938 -11.668385457333187
42 1 7 -4.730952386236162 -7.865709565929121 -11.995903696011434
43 1 7 -5.0824150912824555 -7.306575023280211 -13.495808476628948
44 1 7 -4.477395275236176 -6.180769473230499 -13.433090817841345
45 1 7 -3.8819578832563084 -4.946208934823693 -12.95139251240979
46 1 7 -2.996123733295849 -4.974398847599719 -12.248450730219874
47 1 7 -2.3273523374074805 -3.4915196691168218 -13.076273388679732
48 1 7 -1.5221207815405198 -3.392067245485031 -12.250462992017269
49 1 7 -0.46556484152129335 -3.849729658849662 -12.155146612597303
1050 57 4 -0.8113342960711429 -2.5310594545991028 0.027415741232103063
51 57 5 0.41594623257362806 -2.706802199057255 -5.5560628185016965
1046 57 5 2.6615883755201253 -4.836368088997359 -2.1327850937422124
53 57 5 -1.1701971491453762 -3.2777935712427557 -2.3387981852500745
1042 57 5 1.7189543213422396 -5.060915768396768 -0.36736246113086996
55 49 8 4.79284121161032 -7.1530119626932755 0.3110085773796498
56 49 8 3.1138542307835113 -6.750537849735101 0.5073106767736256
57 49 8 1.7481431055668375 -6.68064194336048 0.5476475682600862
58 49 8 2.1547832274194945 -6.7161247445560885 2.100069152920428
59 49 8 0.8460192887491651 -6.616826643872907 2.1383123518183673
60 49 8 1.121769268422827 -5.939426508180515 3.2366718354574067
61 49 8 0.4293962587894266 -5.215747787085754 4.139356139803276
62 49 8 1.6340865711751134 -5.939546555803008 4.81213016125011
1007 57 4 -1.4593125986703648 -7.650540861367177 6.908217880854196
64 25 8 0.5148608221415767 -5.088178086300883 1.5698324878284915
65 25 8 -0.8099580212632708 -4.5355433070361775 1.7378178301113283
66 25 8 -1.877644496953731 -3.8445859679430066 2.156611282090211
67 25 8 -2.579588072212685 -4.530999377253859 2.475461098851809
68 25 8 -1.6542003448185036 -5.127673922749545 3.6277932539059123
69 25 8 -0.7127139330330415 -4.581058660929232 4.841961380228988
70 25 8 -0.3133494275916019 -5.701520469068113 5.509223399826686
1036 57 4 0.09412041549317794 -3.795270427194778 3.6805006301155636
72 57 5 -0.41153345681280207 -1.6308505805756741 2.739244243109047
1009 57 4 -2.115392789346455 0.3158947829741026 7.813234748486248
74 51 8 -3.36042239232471 1.8929917394353801 1.270135970436362
75 51 8 -1.9916114178233855 0.4301257923667566 0.8167900665763506
76 51 8 -2.883240179784668 -0.5663604670559339 0.7342768577880062
77 51 8 -3.3986153077814687 -0.5894617988850721 2.0757708491418536
78 51 8 -3.6490482774316546 -1.707571546738132 2.092131867144359
1037 57 4 -4.741689153806403 1.5272468751735975 6.227399079081574
1017 57 5 -6.027290079443724 0.867358009849309 2.8135690261559847
81 54 8 -3.879788294500811 3.221613273721251 3.9198854055457004
82 54 8 -3.484143964001468 3.888554288228812 2.5977727228082905
83 54 8 -1.9104878104427165 2.9760202284054045 2.3472406216009825
84 54 8 0.007773884717645923 2.6047478017008 2.130812829329031
85 54 8 0.8464188670124276 2.525797855325235 2.8025464285601935
86 54 7 0.6752930922067207 1.4517166904309786 3.2662649917417528
87 54 7 2.1652169228933524 0.581289443626443 2.761898609727647
88 54 7 1.5388521038304175 -0.5921896358283413 2.547004656863171
89 54 7 0.7544405484385156 -0.08600458002398079 1.8575335901232468
90 54 7 1.4827813226930595 -0.730634360078104 1.3129981847804588
91 54 7 0.46574168970609897 -0.6286864210678249 0.6511393049620036
92 54 7 0.6468472928247534 -2.0433102634731553 1.4027290560271242
1044 57 4 0.8350052620708092 -0.7345825738300826 -0.2982934104810178
94 53 7 -0.010102996689107292 1.0364192447597387 -1.624039127751708
95 53 7 -1.030091439247244 0.17486460403635348 -1.3010947226932859
96 53 7 -1.5869161464863142 -0.9091523034432446 -1.159705304816626
97 53 7 -1.3001357358385706 -1.9277779134483137 -0.5212669891712025
98 53 7 -2.3189089090582087 -2.9262307680227226 -0.35464286476804335
99 2 8 1.619271558485045 -7.284045090415371 3.0780804147731686
100 2 8 1.4283371249381256 -7.5730725782601205 1.4684634639056413
101 2 8 1.0260878662152804 -9.383625066054002 1.2367494961013992
102 2 8 0.08513071922739376 -8.04669319385607 1.5803301277203574
103 2 8 -1.481581128199736 -8.211225783531715 1.1938302510887129
104 2 8 -2.693445268386549 -7.426657321202307 0.9801724946676721
105 2 8 -1.8029352986902747 -8.763987621143377 0.05082115371470711
106 2 8 -1.9263059089980454 -7.958383077290503 -1.1032719634648918
107 2 8 -2.9643071421737504 -7.540179656917733 -0.6750473939502226
108 2 8 -3.7430629028311446 -8.9239158711864 -0.8575052445842405
109 2 8 -4.021793749457575 -9.783849404758648 -2.004352140220422
110 2 8 -5.243198352400896 -8.998352358105134 -1.9537660002204
111 2 8 -5.117144776001626 -8.06862781252201 -1.2486625056925487
112 2 8 -5.904884743441013 -9.245299863959415 -0.17595060189683434
113 2 8 -6.365126798303138 -10.014518660961965 0.30547493829080385
1024 57 5 -4.070722477094652 -11.58799459833457 -1.071748949813217
115 39 8 -5.202047741379608 -10.892762277756393 2.648692176523475
116 39 8 -7.104219072806505 -10.82945540526933 2.9125375445300357
117 39 8 -6.346590858699801 -9.825861507583195 2.3765888305156424
118 39 8 -5.4368478750994385 -10.443915554607576 1.495295522591899
119 39 8 -4.547737929506053 -9.012736282305374 1.4255852684212518
120 39 8 -6.033899154380398 -8.237695541004856 2.3293983084379186
121 39 8 -5.359038076508068 -7.339842170802466 3.4132322025532793
122 39 8 -4.810235541242461 -8.048036722032021 2.601809813259997
123 39 8 -4.570257068086229 -8.40776455547257 3.6151458557257508
124 39 8 -3.4878863994473885 -9.135359182108221 4.20375210606984
125 39 8 -3.742483437311166 -8.68629225658311 2.8305011827063797
126 39 8 -2.853896921456546 -9.253088996264367 2.9390785411433393
127 39 8 -3.144561447150653 -10.421771196367153 2.69031924118717
128 39 8 -3.715136964119752 -11.436229110508478 3.4176347516971393
129 39 8 -4.998768521342832 -12.635537902076626 3.196576116075823
130 39 8 -6.002325354306254 -13.274048301891023 2.3622502047230856
131 39 8 -7.49569106992308 -13.172328536198712 2.184265959714145
132 39 8 -8.232535790153756 -12.223421938780966 3.051343500348775
133 39 8 -8.495392073481177 -12.81172299693183 1.925852665429734
134 39 8 -9.06404665773134 -12.790957993016505 1.0454199260190038
1025 57 5 -7.337261509934299 -16.90259629886303 -5.640256999276403
136 37 7 -5.816951040575984 -14.66129889124033 -0.2960456360241511
137 37 7 -5.896361632739956 -16.227187443833383 -0.5933668894007106
138 37 7 -4.464744924862778 -15.804385730100893 0.01817874405314958
139 37 7 -4.323135512220024 -17.42418402742067 -0.05545340636832618
140 37 7 -2.721407842433324 -16.447445588345804 0.3921924853681803
141 37 7 -2.0186388187193027 -15.58669244401942 0.4290607298867581
142 37 7 -1.9596148762735832 -15.049495121517717 1.3985871610258183
143 37 7 -2.4203667942328395 -14.356373881445 2.9488738294230417
144 37 7 -2.3696184082002985 -13.981765321270556 1.5158840080925104
145 37 7 -3.8057447495216503 -13.946598703200646 1.8982477307543968
146 37 7 -4.991540436740366 -13.099530318260555 1.6729864673448014
147 37 7 -6.542200490953897 -12.228793295132395 1.6315671141842856
148 3 8 -1.763536962000939 12.387462624913846 17.911123672859905
149 3 8 -0.246253089579286 11.463504023708502 18.333199951662777
150 3 8 0.010253896010180234 11.304713391977238 19.59632694141494
151 3 8 -0.24235171361214292 9.704768816597866 20.523851713170433
152 3 8 0.8698057757741947 9.62031313541704 19.556298055559427
153 3 8 -0.37584936586670986 8.489205529697863 19.6621566167819
154 3 8 -1.596388416845916 7.8224503083098345 19.52008179204924
155 3 8 -1.8421266963173706 9.294147094822677 18.614587471360483
156 3 8 -3.370644786829039 9.569448459269541 18.774643890476593
157 3 8 -3.8444486853326336 7.793315948232236 18.26461748851754
158 3 8 -2.654660690912322 8.027524307718615 17.639481596253194
159 3 8 -2.6059622825884396 7.466354420716742 19.14490457626944
160 3 8 -3.0335685217444825 6.167799137954905 20.068179474055796
161 3 8 -1.298082380174944 6.155913892396613 20.0281568550679
162 3 8 -1.9486924385175515 4.536450515185969 19.431311826877728
163 3 8 -3.8056144879709684 5.56921203175118 19.384625715093012
164 3 8 -5.127088293606532 4.759864738820651 19.30030499680943
165 3 8 -4.276977274090075 5.38657445431762 21.215596903054983
1031 57 10 -4.471486892482217 7.3111204307758095 21.119028733120214
167 3 8 -4.122750837054121 8.271682663937378 22.41498591638831
1043 57 10 -4.852471108832161 7.273548890670171 22.941091383479964
169 3 8 -5.011754690040906 6.452742408992306 24.09708259921029
170 3 8 -5.044026050796493 4.855443555552768 23.387007805422318
171 3 8 -5.502902788896713 3.6931676501432817 23.384214817563908
172 3 8 -5.523685284674954 3.602761926041983 25.030240308362142
173 3 8 -4.307549705843935 2.468135003463352 25.001703711756065
174 3 8 -4.450120495540127 1.4112211528379646 25.68198566743139
175 3 8 -3.498473356171086 0.12202930549230159 25.76130099253825
176 3 8 -2.8254306121877133 -0.628109642719592 25.252813143552032
177 3 8 -4.104437585738298 -0.6784111402500089 25.014353674660757
178 3 8 -4.5070876096781 -0.751224179026106 26.126835547349618
179 3 8 -3.84339143575802 -1.0315329233094597 27.393322144055443
180 3 8 -2.679540298474942 -0.8196042442827223 27.97926964341213
181 3 8 -0.9444906297168373 -1.751107150911991 28.311708819235193
182 3 8 -2.3008814688294623 -2.2269962802132417 28.95983634595588
183 3 8 -1.0001391104813224 -1.620240101552285 29.541427936295523
184 3 7 0.5540365283295449 -1.2467644200534609 29.635303279845676
1028 57 9 1.1871147785790919 0.14028123939479167 28.875290848693865
1023 57 9 1.4353387401255835 1.1208151240645887 26.949891394323053
187 3 7 1.1072151528882184 -0.9035084443052362 26.642242081582477
188 3 7 1.1825715667986738 -0.6498075741067165 24.817111260252446
189 3 7 -0.8226973670560104 -0.9422708722874137 24.322217384283814
190 3 7 -1.5045465342634752 -2.4995014075483364 24.638281029898145
191 3 7 -3.0050917302148754 -3.067462125758194 25.10638161614097
192 3 7 -2.5551705889266088 -4.070356025713322 25.022636472035526
193 3 7 -3.5598001022737105 -5.6996424732382005 23.90969299160808
194 3 7 -3.0586070510700885 -6.541353479811446 23.633893885189874
195 3 7 -2.2989868225402006 -7.659487743739199 23.184545326654696
196 3 7 -1.81557309126703 -6.844995941322518 22.962176502755202
197 4 8 3.20583885898293 -4.102104974302794 12.420238637379436
198 4 8 2.909060762018385 -2.6913741618988647 11.575576139598693
199 4 8 1.770713526116329 -3.7036392941310625 11.941912589550062
200 4 8 1.5406098397792443 -4.307885296906533 12.924223404593345
201 4 8 1.859211643572138 -3.043179297732383 13.722760420011461
202 4 8 1.3702808701011098 -3.9228279347382546 14.138511026980357
203 4 8 0.49338685388898895 -2.6677534103358513 14.963018670157304
204 4 8 1.534801962785744 -2.9927463924139155 16.454241544795167
205 4 8 2.4457507784171644 -3.063047378204755 18.11807619119781
206 4 8 3.6298463340317544 -3.132191630375747 17.58855810380161
207 4 8 4.6474791838150695 -3.0464855469005427 17.945105485651364
1056 57 10 5.210552955051441 -4.541830523197393 17.184700390929173
209 4 8 4.654131594597598 -3.5390405335077637 16.17746259554752
210 4 8 4.44423612128162 -3.3763224873392854 15.120364928121024
211 4 8 4.6654441850358195 -2.275873929729765 14.435345497893328
212 4 8 5.299021760726236 -2.5167806717476235 12.435167057257775
213 4 8 6.027002392765954 -1.8772578774524131 13.090203898088863
214 4 8 7.2277930615871355 -2.139866661684651 12.94510792316813
215 4 8 7.612169723485743 -1.1833828560468362 13.271876746275902
1019 57 4 5.834517989634076 1.3342595491176152 11.306058723496223
217 27 8 6.434089515373907 1.3731829187027698 9.822512752962055
218 27 8 6.169044812110998 0.2884014384133733 8.895338573186637
219 27 8 7.97914397997171 -0.03868106867958689 9.946906527558431
220 27 8 9.173429439587668 -1.1776996438232206 9.51709809137578
221 27 8 9.315023915424998 -1.15141201017076 10.580137535603628
222 27 8 8.741160174795763 0.07657819233495307 9.22145044188655
223 27 8 7.977882048204189 -1.4369570340905096 7.162131414590679
224 27 8 8.154992942558168 0.10232212362771596 6.800813901671548
225 27 8 8.738500676955221 0.8420086435732769 6.498404550292988
226 27 8 7.10899587337521 1.0419512306147523 6.553955606822244
227 27 8 7.096237044992344 0.2597518525908601 4.983696721551619
228 27 8 6.082931561041752 0.9095024667857888 3.932988525096208
229 27 8 6.981772441696336 2.0573296632563056 5.296229062206934
1054 57 10 8.165527307862623 0.9419112609801988 4.440464364056442
231 27 8 9.50238239052489 0.45884160656162876 4.268662735514504
232 27 8 10.78379722141676 -0.8648605581498202 4.487547761730121
233 27 7 10.04017292209117 -0.5571954684355825 5.421130246588247
234 27 7 8.821211160668192 -1.4252649644405526 4.63650608963779
235 27 7 10.020377771002648 -2.8741249785876954 3.8162028424168293
236 27 7 9.546237854837516 -3.6590629298880195 1.8786316878019669
237 27 7 9.407469841623946 -2.1047502708299826 0.8920704188778178
238 27 7 8.408073480690124 -4.375396791061757 1.3172557417927744
239 27 7 7.269469244563913 -3.159779875452082 2.14461607116505
240 27 7 6.223923575719121 -1.8543453875074605 2.224002141291842
241 27 7 6.362106165103848 -3.2110460455132617 2.881555801574749
242 27 7 7.257414666253274 -2.1800794678683926 2.540714796601168
243 27 7 9.065234178793187 -1.4484752373315135 2.2039611451405428
244 27 7 8.320452722519494 -0.7003976848518961 3.578295954284004
245 27 7 9.395434595977743 -0.9809831085244552 3.4005312756652284
246 57 5 0.8741073391979974 3.9414796353300283 5.897923181798204
1052 57 5 -0.8989460097560801 2.00797003980533 6.141072160551737
248 28 8 -4.345089754208081 1.2462556997218535 3.344727214658368
249 28 8 -4.34503240875042 1.17752299524254 4.54018797321501
250 28 8 -3.260923634492755 2.669356872326187 4.598007158274794
251 28 8 -1.8710209091795313 3.9831683458695393 4.37260783654144
252 28 8 -1.1932274210372995 2.835807146929805 4.915710487347076
253 28 8 -1.1334278517310639 3.378865053008574 6.417274527308663
254 28 8 -2.6419954466353235 2.482883214214161 5.91601276345546
1071 57 10 -3.929133145414649 3.2347398275176853 6.552857487078515
256 28 8 -4.005984916775626 4.813371525865891 6.561422556979417
257 28 8 -2.744690212616476 5.233881999788253 6.156759180854704
258 28 8 -2.901474630535219 5.0815887457006825 7.629170756902141
259 28 8 -4.047825418361676 5.069863733713757 8.571511291041404
260 28 8 -5.12231869346817 4.356466638254381 9.330199522035885
261 28 8 -3.614588544673044 4.505936002695581 9.774258247411352
262 28 8 -2.2049945902116996 4.510987771496872 9.693228678313519
1069 57 10 -4.308474961888357 2.8333631136537525 9.470236353099283
264 28 8 -4.249256408698491 3.300971169851021 11.241989429397858
265 28 8 -3.2077669500271067 4.27061741011174 11.396060966536629
266 28 8 -2.768313892721805 3.7896264169776797 10.65223207011281
267 28 8 -1.906478285775065 3.1338626308468456 11.790942552662072
268 28 8 -1.308896437212541 1.0903482903480517 11.900389885468996
1034 57 4 -8.344988300778734 -2.4506671319908335 9.841442684489152
270 41 8 -3.734319837432753 -1.173447551525839 12.216242669113818
271 41 8 -4.37867188412836 -1.1777565534158776 13.19483469927843
272 41 8 -3.3787798840959775 -2.369348497127257 14.326275443418814
273 41 8 -4.515625268253935 -2.434805548893992 14.716093448929453
274 41 8 -4.500366253642952 -3.4828516410345127 13.29638083152792
275 41 8 -3.9583666714950096 -4.543639245783398 12.019648308360276
276 41 8 -3.1596505011583282 -5.466728714044038 11.26167703196337
1047 57 5 -4.18325602326042 -2.3507406938396427 8.899806525664264
1012 57 4 -1.1180916890396495 -2.2063546682145203 3.7219220610970236
1026 57 4 -6.529629470636515 -2.460344750086028 10.163047409030305
280 45 8 -7.695850340035964 -0.9014743418786834 8.457047154318369
281 45 8 -7.094222809932313 -2.073544299368357 7.467688718131606
1067 57 9 -5.893574897070766 -2.3820438046228674 8.057547615882713
283 45 7 -4.575564787476542 -3.377703013467728 7.506120887796327
284 45 7 -4.144273568558072 -3.393736910813333 5.533484685114541
285 45 7 -5.489761157031539 -3.098879099286314 5.731646673490722
286 45 7 -6.2833411787133775 -3.513262231827397 7.037721321954198
287 45 7 -7.893058838444199 -3.1104947334301505 7.044253573400306
288 45 7 -8.598996311684289 -4.015370420505681 6.834478988028479
289 45 7 -8.557313284660852 -4.417919309674288 5.649321839536195
290 45 7 -8.899514926380352 -5.660508381302559 6.36359653345722
291 45 7 -9.197018452763652 -5.8388973988109045 5.067530236116558
292 45 7 -10.008539705667744 -4.559103221785476 5.2486292285559015
293 45 7 -10.428950131574165 -2.876087775066448 4.200336302145048
294 45 7 -9.772343030122341 -1.4280899605860886 4.203526978196631
295 5 8 4.108492310602152 14.911032256236322 8.221369073732923
296 5 8 3.317351053724987 13.582357505561541 7.305483297219207
297 5 8 2.079424114407489 12.972815739380813 7.323035717562342
298 5 8 1.3669830465909794 12.946186227796796 8.816300987711328
299 5 8 0.756142494562041 14.157311062157463 8.750132552224718
300 5 8 1.5795331773970196 14.920527090932858 8.2267359402561
301 5 8 1.62369464533132 14.257901696103929 9.29994607326486
302 5 8 0.7386535160967124 13.756054791277665 10.439181348178778
303 5 8 0.48969862546022225 12.783130665443108 10.104330252247832
304 5 8 1.427032413139512 12.136179881441501 10.906166269728587
305 5 8 1.3165124610524692 11.482915395023424 9.338948269535184
306 5 8 1.322507346374029 9.786440695069839 10.058735889225115
307 5 8 2.0813436216553023 10.748600093632948 10.061131948480751
308 5 8 2.5956083602502464 11.600997672651237 10.817584847972853
309 5 8 3.2532926149580477 10.63518311519177 10.709162339132668
310 5 8 3.353950739530989 11.818842361029391 9.774470094601732
311 5 8 3.214696871004278 12.624224319166503 10.87434815036364
1011 57 5 5.786996863555415 8.273394702400264 7.435498504500161
313 40 8 3.4377519897578064 8.052251877024046 8.308407265994795
314 40 8 1.8238418041399975 7.950494141203385 9.280341933576112
315 40 8 2.289482685122225 6.101879954107062 9.960361233366402
316 40 8 2.693817039627336 4.904368554500649 9.047188740408561
317 40 8 2.97482852803036 3.88474032048402 9.767728491876529
318 40 8 3.2981681861610483 2.1342032350809754 9.60129648258134
319 40 8 3.603200347465214 1.9200650134003396 7.416212749233415
320 40 8 3.2720779153950885 1.9945044495388204 6.087106126208124
321 40 8 2.963382579454862 0.9180710672223005 4.470704822346823
322 40 8 2.121179309989541 1.135959406889452 5.670674422219524
323 40 8 1.4637832142616425 2.6624356657051913 5.575955710691311
324 40 8 1.035270934379825 1.910719031831023 7.059618394946709
325 40 8 -0.10174361250629624 3.182591965024153 7.009513272675024
326 40 8 -1.5009073183344361 4.810323699545664 6.906001275212791
1064 57 10 -0.6092958729230474 4.427265001662832 6.968195085821266
328 40 8 -1.9530403185192513 2.431576425564951 7.578630319949647
329 40 8 -0.7681851158959226 2.861183344947929 7.974667157714852
330 40 8 -0.9557213943151018 3.8353172656764163 8.533842750114998
331 40 7 0.1168978883582909 3.835557625760633 9.078485262740148
332 40 7 0.4865177720376313 3.197117507329385 10.171677644479564
333 40 7 -0.060493768094588646 2.411100737339455 11.05027975767512
334 40 7 0.10365003046839934 1.9434396555477988 12.6587926780926
335 40 7 0.5877829942447809 2.933611835747566 11.841634174743033
336 40 7 1.579701896725952 3.040111648385811 12.391985737401383
337 40 7 1.9688358145531693 4.345406426468151 13.107159359650991
338 40 7 0.5237415441876272 4.163154450076418 13.691454348850074
339 40 7 1.339507792542475 5.10064117134003 14.576226965678188
340 40 7 0.08787164071744089 6.071206292324702 14.799346498030078
341 40 7 1.3523561157060306 5.395671234554524 16.518582380428246
342 40 7 0.7818765798186176 5.616415873168428 18.173724291680433
343 40 7 -0.06247539102674431 5.832568482596447 19.40858430582803
344 6 8 7.627691935506773 17.568186234332035 -7.9398709869691695
345 6 8 8.244679401772505 18.20151386684036 -8.721827180704697
346 6 8 6.551776061323001 17.41632739366856 -9.11865229195823
347 6 8 7.587684085117209 16.52995304237298 -8.595767188935593
348 6 8 9.116246649024639 16.411722875958315 -7.920287969170687
349 6 8 7.945718091330171 15.75289994863502 -7.430690856416371
350 6 8 7.888868592836017 14.949434994445378 -8.26542191971195
351 6 8 8.299156725476166 15.543993292314903 -9.670456599416312
352 6 8 7.2918057245324714 15.94414870595383 -10.12277972078831
353 6 8 8.168606892285583 14.519050298814497 -10.26315665510116
354 6 8 7.786924593981914 14.692340058717399 -11.987688125675215
355 6 8 8.162937005135527 13.914467624714893 -13.032914989327756
356 6 8 8.624319861004675 11.61932307743215 -12.62195215786591
357 6 8 8.587828456413732 9.966582105604783 -12.563928441591905
358 6 8 7.628161150768493 9.545956098187725 -10.96928970464303
359 6 8 9.216568305569657 10.291364088594246 -10.774441363192437
1057 57 10 9.208855832671954 9.369778234523224 -11.671968534426936
1048 57 10 10.812780943841883 8.604680800569776 -11.418922869353725
1066 57 10 11.418688321648645 7.370578309884678 -11.859755195636007
1051 57 10 11.661121433037613 6.157653078750431 -12.907824851510044
364 6 8 9.599762248860486 5.696232573005621 -11.95973921766773
1063 57 10 10.052025691907955 4.7465413895245545 -11.199558140636858
366 6 8 8.774350065007381 4.080430026245639 -11.299009394808968
367 6 8 9.788992557156476 3.5547882398426207 -12.248414083067791
368 6 8 9.453187429134744 2.1648922114530866 -14.058977900920814
369 6 8 8.896176252677826 3.259949863765035 -13.49466889799766
370 6 8 7.87002279483234 4.932568172822413 -13.758616925856948
1038 57 5 8.58605216189129 7.525182794592387 -13.557535217917314
1035 57 5 14.630289321206279 5.068713008988505 -17.20381820144747
373 38 8 13.429133125731585 5.336012961946219 -16.889592149660075
374 38 8 12.712315082805386 4.77641817563758 -18.195681217380493
375 38 8 12.323971861902734 3.7573751919932636 -18.355424463375407
376 38 8 11.018199960776428 4.417399189109579 -18.887186499555703
377 38 8 10.479702001123233 3.4966963715762422 -17.62497927836535
378 38 8 12.121172737921647 2.2485640242593603 -17.387482402969148
379 38 8 12.718620638251148 1.7762784344497995 -18.025989282877944
380 38 7 11.60367252170246 1.0343362445479447 -16.57869766424418
381 38 7 12.019926577339472 0.8008135570386841 -18.006220540670295
382 38 7 11.130017997808258 -0.21055377186955088 -18.26339272750761
383 38 7 12.645601165554497 -0.3965896188407169 -19.50951206540047
384 38 7 13.017139122408928 -0.9262958517340406 -20.748264803821925
385 38 7 13.49398345740203 -0.011987950067071753 -20.583062042699442
386 38 7 15.048795917708004 -0.6596804270192278 -20.753174279269512
387 38 7 15.593796811143267 -1.6820252078113118 -22.16611169647404
388 38 7 16.208054174556164 -2.5724888703806976 -22.62115784337704
389 38 7 16.667112596644955 -1.101045706599025 -23.196698205134197
390 38 7 16.303544463146597 0.0010603626468951798 -23.22556032268871
391 38 7 17.254751794523266 1.2838378571326479 -22.52716903504661
392 38 7 18.264808933367252 0.8061193291084725 -21.39894134300127
393 7 8 -4.562935852707246 -2.8982209457082933 -16.617173042245188
394 7 8 -5.899631884515146 -1.8610236565863254 -17.01897724207549
395 7 8 -6.658072231188489 -3.1603676215180547 -15.176119257967207
396 7 8 -6.042866776045719 -3.8698192071139643 -13.878488383074746
397 7 8 -6.074753051185351 -4.248583303370654 -12.25955554234363
398 7 8 -6.834671368698366 -3.6324124332466843 -13.001351951032573
399 7 8 -7.4578812401003685 -1.7452835896220742 -12.12796075836383
400 7 8 -7.404702496096258 -0.7179493625008448 -12.202071605605706
401 7 8 -6.135069078149793 -0.5438303594828708 -12.36757680189704
402 7 8 -6.34031216817941 -1.449328785673338 -11.238205981420345
403 7 8 -4.2654065931213605 -0.5937276682953189 -11.420569254918545
404 7 8 -4.36482026737532 0.7941723598244278 -11.929775811311663
405 7 8 -5.38371479623385 0.6861306045942346 -11.167099571890633
406 7 8 -6.348776304459401 0.13851606667294308 -10.747861641765622
407 7 8 -7.372169526899117 0.39137034548706096 -9.632484988545642
408 7 8 -8.328087343218339 -1.229996581146249 -9.466069553525037
1010 57 4 -1.7761783269855589 -0.4539631197346334 -10.660757519476162
1022 57 4 -7.300660507214977 0.4565842094292159 -7.028679742215534
1016 57 4 -6.407136131431152 4.167647111393169 -5.8665544753653345
1029 57 4 -3.792422335115364 -2.903112035307021 -5.396350996662244
413 47 8 -4.517408512788893 -1.9879437615200999 -7.541238441579582
414 47 8 -4.93803407088516 -1.3703840279932544 -8.366945626357904
415 47 8 -5.978576383925579 -0.24261564502502364 -7.200506857569919
416 47 8 -7.353352952942786 -1.1345059398327726 -7.830783863177901
1021 57 5 -8.855420890692072 3.7570009413803875 -8.684976204537916
418 29 8 -7.300451654422865 -1.66131503044321 -5.102414119823875
419 29 8 -7.505120710129754 -3.1066744437361486 -4.650185819441312
420 29 8 -8.827867596335647 -1.583149384971877 -4.389307736476142
421 29 8 -10.18357162245347 -2.167608947865636 -4.391652384769325
422 29 8 -10.674267234119915 -2.004082274836344 -5.532301330647828
423 29 8 -10.426988125178141 -2.5198059528898775 -7.31232769348118
424 29 8 -11.185764674067185 -1.7324180928111053 -7.268477304424098
425 29 8 -11.100051728168637 -2.935685432320203 -6.503680804444851
426 29 8 -10.983486055048093 -3.2909123046275246 -7.690992850753214
427 29 8 -11.737424946639361 -5.05269938642987 -7.221247824340389
428 29 8 -12.030333886318934 -6.223824729973182 -7.777513734499665
429 29 7 -12.344210353898537 -5.004977061792273 -8.580064894408666
430 29 7 -14.480138252065295 -5.491452371271581 -8.965508824835837
431 29 7 -14.18525697444756 -5.517370944381074 -7.439873738474888
432 29 7 -13.249015269987336 -6.898708413721844 -6.98613228840004
433 29 7 -13.251224863947936 -6.820174150170613 -5.877426752244357
434 29 7 -12.258480819096926 -7.551658090447433 -7.204373685327056
435 29 7 -13.397243712959508 -8.10070303408338 -8.12101266491643
436 29 7 -14.473667683433675 -7.619664175150021 -9.30131173976853
437 29 7 -15.878604459763444 -7.698201314275682 -8.247382417254032
438 29 7 -15.475355702249999 -8.354724770927577 -6.678222135390951
439 29 7 -16.3100927611966 -7.869404327172167 -4.931984177437005
440 29 7 -15.325632360683496 -8.129385736536607 -5.510331047743111
441 29 7 -14.46861175319709 -6.386883604691795 -5.6483492106143585
442 8 8 -0.9344993570696563 16.005783418377362 0.5181374016919953
443 8 8 -1.9298380978704968 16.129883164157924 1.1974561253872968
444 8 8 -2.729382727279553 16.44916071466423 1.8095310326020055
445 8 8 -3.1727622014965307 15.688502476064906 0.2620251702344932
446 8 8 -2.735532754858505 14.618392490446253 0.43973975178673597
447 8 8 -3.9830752778556597 14.876449884259184 -0.4880740894751619
448 8 8 -3.8037530598221325 14.60974421842458 -1.636695546976027
449 8 8 -3.7055781987901835 13.961732841270418 -2.6933955590904546
450 8 8 -2.251810511988688 13.524455967949034 -3.3199944813616242
451 8 8 -2.2001030049461465 12.660725005826437 -2.6411550005578595
452 8 8 -1.9442589723424526 11.5832736842844 -1.7612978042383094
453 8 8 -0.7922293145496888 10.902335002716846 -2.2402933196816317
454 8 8 -2.4066496018083625 10.823199101186585 -1.030745468145829
455 8 8 -3.533702088856998 10.825659655272997 -0.40033202040851723