# Generated from readdy-to-lammps

1005 atoms
704 bonds

10 atom types
1 bond types

-30.0 30.0 xlo xhi
-30.0 30.0 ylo yhi
-30.0 30.0 zlo zhi

Masses

1 1.0
2 1.0
3 1.0
4 1.0
5 1.0
6 1.0
7 1.0
8 1.0
9 1.0
10 1.0

Atoms

1 1 8 -15.555281386158596 -9.605543550951621 -11.277484807923477
2 1 8 -14.5522612403067 -9.236224177422622 -12.65631001450013
3 1 8 -14.19306495714736 -9.366043424022012 -14.15149148277145
4 1 8 -12.833776247906087 -8.127452161896382 -15.382887279725843
5 1 8 -11.062765427032732 -9.264020236595924 -15.364599109316913
6 1 8 -10.716236835013381 -8.300427612529282 -14.287503382396315
7 1 8 -10.689848310114925 -6.547593690908034 -14.492182759252216
8 1 8 -11.03834374640676 -5.724969853635718 -13.39103319450547
9 1 8 -12.062353618014622 -4.910935476172544 -11.203651270365276
10 1 8 -11.735420962957996 -3.612612418916792 -10.107516957869008
11 1 8 -10.996848760973565 -3.82389343294017 -11.214935020378077
12 1 8 -9.39999617014518 -4.240120355151226 -10.963558491904312
13 1 8 -10.432929121098727 -5.423759613262824 -11.456699481481456
14 1 8 -9.063692854202834 -5.107391610296768 -12.399519891927325
15 1 8 -7.383322144730213 -3.652425072847297 -12.009350663963984
16 1 8 -6.217632220725582 -4.15799628644095 -11.204738801603655
17 1 8 -6.433029509427317 -5.478284495634674 -11.05878831107389
18 1 8 -5.692783861047175 -7.088557649911095 -11.291174561778112
19 1 8 -6.535032175179997 -7.661181971698641 -10.48116592269905
20 1 8 -7.3634560136725735 -7.3502900705515675 -9.944338898485144
21 1 8 -9.631279551973696 -8.594785095514817 -9.647339427982955
22 1 8 -8.261744337963885 -8.567903984476741 -8.889499200457985
23 1 8 -7.393799104019021 -9.46675838410502 -8.465144553825946
24 1 8 -5.5244543936229675 -10.001932806532098 -7.62108372657418
25 1 8 -6.528655055995064 -8.943407732851192 -8.370782476849389
26 1 8 -6.803077510061618 -7.692801517131728 -8.250265856328713
27 1 8 -5.6324774399710344 -8.116986558824403 -7.175153106710368
28 1 8 -4.537461537423874 -7.765318328094862 -6.580692366000757
29 1 8 -3.2379985647672953 -7.725007948461897 -7.882250571320111
30 1 8 -3.875603570268738 -7.079013375572372 -9.420088398327842
31 1 8 -4.283616492235719 -6.084719963406671 -10.13066890556866
32 1 8 -3.9570195410057574 -5.968563555233399 -11.253460005715864
33 1 8 -2.600613822080509 -6.609551114222917 -11.042806987846994
34 1 8 -1.2191035905843737 -6.1105531690904344 -9.443599639774249
35 1 8 -0.4850708511749171 -6.851490357075001 -8.960036222323659
36 1 8 0.8885301074570577 -6.8502343360961895 -9.731081823400546
37 1 7 1.4352288340830464 -7.919301339110751 -9.590933093720778
38 1 7 0.6258665327381625 -6.942583384820823 -10.981057071693177
39 1 7 -1.493672220517203 -7.265826361108971 -10.79153380880604
40 1 7 -2.381346516371669 -8.246642369615031 -9.09596892779706
41 1 7 -3.0501796559300676 -7.997751059388419 -10.73502400700318
42 1 7 -4.532582055161549 -7.611518737139146 -11.897342086996565
43 1 7 -4.589508046872581 -6.737370108776172 -12.661518615214638
44 1 7 -4.921597890431746 -6.429769951953648 -13.712687971298987
45 1 7 -4.146164456002907 -5.245614531393315 -14.307706684132166
46 1 7 -2.7521802687005206 -4.151132167632292 -14.685351036286871
47 1 7 -1.1738097875163567 -3.7638534025387598 -13.305483360552453
48 1 7 -1.222667170887734 -2.2225587299858898 -14.470419827648495
49 1 7 -2.1159928343208905 -0.7468488932823805 -13.73841179747226
50 2 8 -0.950956697872213 -2.117641293091565 -2.2789589380939437
51 2 8 0.40627476057730844 -1.4237989371889423 -2.0548614497064044
52 2 8 1.5114851616590828 -1.972777084378768 -1.575001614169496
53 2 8 1.9453884383544988 -3.300287486611948 -0.9030465460814826
54 2 8 1.8986609787287931 -4.456531247590797 -1.4099233303511367
55 2 8 1.5962867435677224 -5.65848791697463 -0.12782892405662113
56 2 8 1.8278364343664903 -6.451005987079616 0.8424506435097472
57 2 8 0.7327635134315201 -7.116256750121637 0.9890696396159232
58 2 8 1.0709719498720824 -5.899483820344669 2.519380742133472
59 2 8 0.47549527830725125 -6.363979821883229 3.5956650540892716
60 2 8 -0.02683460170524217 -4.94629230289123 4.842700061830076
61 2 8 -1.2992793310100326 -4.596374288355986 4.519646843867358
62 2 8 -0.2885958159094702 -3.3823225512080928 4.685261405994015
1007 46 4 -1.9214498184420827 -4.850580673069615 5.872134157194669
64 27 8 -0.22415400578342187 -5.739291553506598 2.3088280056732304
65 27 8 -1.1250111521380555 -5.102243740060008 1.088521747261381
66 27 8 -1.9172281931055586 -6.39482970434312 2.701022543352136
67 27 8 -1.820527415600041 -4.364160464023824 3.3441396990197463
68 27 8 -0.5228470118517243 -4.2853956140914296 3.5413340635774806
69 27 8 -2.5115161300524362 -3.6821374126142645 4.363888561412446
70 27 8 -2.677691636918437 -1.8229036080053909 5.047600192806741
1036 46 10 -0.7237383580628669 -1.9522967385322394 4.982382828542898
72 27 8 -0.02622012682432377 -0.644133409363751 5.0268090636795755
1009 46 10 -1.5079914956626477 -0.5293904697104439 3.845224498148533
74 27 8 -1.751235743071111 -1.2576696719902745 2.981025954526304
75 27 8 -2.405397962281841 0.21547833419690077 2.3625462332139597
76 27 8 -3.6545587441075633 0.3255562609769349 1.737621752766022
77 27 8 -5.367763023839504 1.643884430244908 1.7485754284627777
78 27 8 -5.139539364109864 1.28444824444099 2.7068471898135007
1037 46 10 -5.365627510055221 0.21560152297488042 3.791251457999524
1017 46 10 -4.711308347131315 1.5389028467034847 3.927760859681836
81 27 8 -3.9558862235040357 1.8693433872248542 2.6183706721503155
82 27 8 -3.7930594602424637 3.089413869999784 2.174644388917389
83 27 8 -2.476404968563496 3.1665468480534527 2.450116803120538
84 27 8 -1.5653479459492137 1.8628650086106977 2.3150442131589535
85 27 8 -1.6100666401994892 2.260135622914624 3.3142498618387872
86 27 7 -0.6911014334585778 1.2367698811365622 3.744131799825899
87 27 7 0.3017776828213946 0.5302976106118301 2.5997203348440716
88 27 7 0.15548185172466186 -0.6208389180346631 1.9173586957225612
89 27 7 0.5826863768411725 -1.277027212764748 2.7456963989431853
90 27 7 1.379365993518824 -1.6929238283080243 1.3354057066859968
91 27 7 0.652211989861638 -0.0033899779161418305 1.0798499885376138
92 27 7 0.8392104549724273 0.6645622731847515 0.2793953579078924
93 27 7 -0.7803335811121223 0.5383336133914322 0.7963831372365033
94 27 7 -1.4899339132880056 -0.35238207544745925 1.1050638567011826
95 27 7 -1.3358488456321487 -0.31312577305180617 -0.5355278705467194
96 27 7 -2.7338356015854663 -0.6325316596527654 -1.6014237564096407
97 27 7 -2.4158317160356972 -1.8791126962105114 -1.3441105227871726
98 27 7 -0.6950719041492219 -2.3959252101532615 -0.702956244399314
99 3 8 -0.44038758344286616 -8.131597846875744 -1.0199947258054638
100 3 8 -1.227981763458112 -7.936009722001793 0.4510599867104435
101 3 8 -2.2640289845917616 -8.381679061763645 1.6723698147667105
102 3 8 -1.0723484014920301 -7.7740386457922686 2.81487910730412
103 3 8 -1.5288846777532108 -7.286381951029461 1.6187053466326509
104 3 8 -2.3711925445701016 -6.542611382799554 1.056427863529562
105 3 8 -2.089335556554131 -7.164649971424762 -0.07290895990897674
106 3 8 -2.176906119965255 -8.14980807849317 -0.5426347949150526
107 3 8 -2.4947356026349814 -7.4045875383918585 -2.2034896066102663
108 3 8 -4.411245293278509 -8.038211060928658 -1.9763847898153495
109 3 8 -3.6148960458559674 -9.4385404002582 -0.8869507769125441
110 3 8 -4.580067836628293 -8.745485908772897 -1.2204576275536527
111 3 8 -4.5883643243995875 -9.285934427788291 -0.17658107966246345
112 3 8 -5.703848950249098 -8.720278323823264 0.5462274150026791
113 3 8 -6.5561765431863135 -9.954256454715727 0.5299556540773434
1024 46 8 -4.360482046211155 -11.988871160383745 0.8526170351767624
115 44 8 -4.452725713362526 -12.201306475224603 1.9102530528454942
116 44 8 -4.623224526584633 -11.143607400054046 1.9947626799888105
117 44 8 -4.417935316380736 -10.569601164065954 1.0994780749460387
118 44 8 -4.192959924598138 -8.521873830954204 0.6325005457329359
119 44 8 -4.688578861506705 -8.106302896468334 2.043994642714507
120 44 8 -4.159300381357166 -9.004939995045683 3.3827844426693625
121 44 8 -4.974055343524297 -7.749593777765061 3.5584468646435155
122 44 8 -5.125828059511444 -6.413983166178504 4.1269128132308905
123 44 8 -4.437518718820436 -7.643593966838559 4.872865185738481
124 44 8 -3.50904344265743 -8.462911397881923 5.638420077177702
125 44 8 -2.8602614460421583 -7.596626816441827 4.412000150755073
126 44 8 -2.7986838647863275 -9.378013236775141 3.7796784966843737
127 44 8 -3.0898973639476646 -10.067129756778213 2.585585467092379
128 44 8 -3.6831450058758053 -10.899411840212656 3.699019619340502
129 44 8 -4.0055457472737555 -12.396183182156909 4.181338561147861
130 44 8 -4.353486586757034 -13.105812073430428 2.801818964364452
131 44 8 -6.417579941589931 -12.781346925046396 2.814951570730254
132 44 8 -7.109065218562812 -13.187535489409994 4.204915045139022
133 44 8 -7.9455599037769975 -14.080311006819219 3.324655706479448
134 44 8 -7.498586297489814 -14.498065013142924 2.2179677874777064
1025 46 7 -4.551005954028479 -14.418350676715546 0.0017950981882764712
136 41 7 -4.9027016787781195 -16.248059934784592 1.1928624077750336
137 41 7 -5.568379227019396 -16.337522129444103 -0.02339741271398421
138 41 7 -6.193242927303857 -17.881690778161847 -0.13417572475544676
139 41 7 -4.680934217452126 -17.71992656966038 -0.38731661925444205
140 41 7 -3.9336801873804212 -16.30565094653882 -0.12755755753086212
141 41 7 -3.1101906334437985 -15.87743341615754 -0.8512411476735323
142 41 7 -1.9230762526156762 -15.074970683015215 -0.2782280116739476
143 41 7 -2.0571573663604723 -14.77444521773608 1.5058902630308406
144 41 7 -3.218521866064514 -14.36443229116618 2.693000033305526
145 41 7 -3.089393118113557 -13.330232078519982 3.9883714080176578
146 41 7 -4.445841363454702 -13.597820492061922 4.1259985673795265
147 41 7 -4.826348696231393 -12.009412148056029 3.796410475716676
148 4 8 -0.1498936674501687 12.907040842512016 16.69333465871862
149 4 8 -1.0439914646345982 11.478429086267 17.35777061741507
150 4 8 -0.2999770579562282 11.640308057997805 18.214375934743323
151 4 8 -0.9026036610635888 10.678680338465817 18.20691538649532
152 4 8 -0.5082058611026464 10.60589814378265 17.073430133577872
153 4 8 -1.5265199198140416 10.73364203197429 16.814729985351107
154 4 8 -2.2370684827491565 10.968271485951885 17.59726149078246
155 4 8 -2.9801996427971114 10.222604487808983 18.569207643009314
156 4 8 -4.263677240664961 8.859495427789387 17.9783428743663
157 4 8 -4.275188951904616 8.017153375796592 16.54821687071665
158 4 8 -3.0587814709884342 7.610491742288239 16.644802631585975
159 4 8 -2.743460718865302 6.6298054249062 17.77430859779864
160 4 8 -2.221349307574389 5.849771540366444 19.363558205068355
161 4 8 -1.3488582319045141 5.644113011145715 20.738453788932144
162 4 8 -3.122211301565451 6.24237904132141 21.18567882032121
163 4 8 -3.341189897684782 4.409565218174956 21.35282434242717
164 4 8 -5.166720339244045 5.417100520232672 22.678141158242322
165 4 8 -4.785216530772892 6.304329590864271 21.556383103432633
1031 46 10 -5.708718016286186 6.929796155184329 22.135359238252526
167 4 8 -4.335330211679603 6.582288272975239 22.746500021928977
168 4 8 -4.689232469901367 8.063184681022017 23.772389821406023
169 4 8 -5.918537168795245 7.606684877672643 24.434163781616757
170 4 8 -5.614613857520392 5.939781869046734 24.80880507264945
171 4 8 -4.754982767657279 4.758851107215565 25.152848265359644
172 4 8 -4.631184319352361 3.672066663848389 24.1917316939671
173 4 8 -3.804993521390097 2.506853721318428 25.437807196416856
174 4 8 -3.3336067945901813 1.1766017636030521 24.921625378002986
175 4 8 -2.4859582016451194 1.1739518568143374 24.24335160436216
176 4 8 -2.5226851235602408 -0.27772188240888024 24.377860708752518
177 4 8 -2.566083127915105 -0.7169102131452915 25.734019908388333
178 4 8 -3.3153565527022466 -0.5504081041879354 27.23095541331972
179 4 8 -4.449625753277519 -0.6305644282699422 27.066725647235902
180 4 8 -5.537479264412509 -0.38715265956967027 26.746574237303886
181 4 8 -4.311040051298094 -0.998056071596489 28.31907429622384
182 4 8 -2.65653031066817 -1.0695349325922552 27.8316133387533
183 4 8 -2.0588423670312017 0.6016789004181285 28.036350750190042
184 4 7 -1.3305091093715367 -0.39552391723299707 27.633249294935744
1028 46 9 -0.11448007918671169 -0.39017680523520426 28.543797428097438
1023 46 9 1.2379648343698044 -1.7340907642186785 28.021672848853065
187 4 7 -0.7932260472595651 -1.4958344739806613 27.375962614254135
188 4 7 -1.758078381602202 -2.4398391984513434 26.398950122259222
189 4 7 -0.7056212059293171 -2.1777062853624582 24.85436651839019
190 4 7 -1.654279130853233 -1.9162312850201435 23.45056322252337
191 4 7 -2.041838044495385 -1.8363740756709819 21.853876005365656
192 4 7 -2.618926027930909 -3.3434810985292107 22.442106146217963
193 4 7 -1.7138562591338162 -4.6866219073355255 21.963761630258492
194 4 7 -0.7026352361442473 -5.773989229988643 23.011077524899054
195 4 7 -1.4388018894364092 -6.579908570055178 23.01656091694139
196 4 7 -2.041671867464889 -7.094592118325527 21.848454121519794
197 5 8 1.435154744987638 -3.9638821372293527 13.635856064522859
198 5 8 1.2883536140860672 -5.292058917007553 13.571579408880904
199 5 8 0.19717303265988453 -6.003027576098783 14.212820994117003
200 5 8 0.3005654561267085 -4.807806068834434 15.505795231890637
201 5 8 1.0978003265940806 -3.8840585698761783 14.729941229913205
202 5 8 1.879879633872147 -3.234043803437232 15.124327951890523
203 5 8 2.945388086716167 -3.0451378741701904 15.177767563641883
204 5 8 2.7090833008433295 -3.3503406729228056 16.824673203985967
205 5 8 2.772881023343369 -1.65410270844231 16.153305709618238
206 5 8 3.7233978566618933 -1.6751851968811973 16.78747137484298
207 5 8 5.1459900908764595 -2.563604918214829 16.94193120252632
208 5 8 6.300608702016547 -3.5972331592932023 17.322872428026603
209 5 8 4.774696223036456 -2.9266750129863244 15.83431319821414
210 5 8 5.409213562267459 -2.0109983932630393 15.58417954507926
211 5 8 5.9975458571671725 -1.9052460956265103 14.457540276537284
212 5 8 6.285072456810123 -0.8301772605535774 13.96234753290764
213 5 8 5.483167370313714 -1.125793146518846 12.617905831605619
214 5 8 5.716793918832577 -0.11788580561026728 13.355029246587767
215 5 8 6.363383260693771 1.096873937126331 13.039222191265793
1019 46 10 7.270322554805481 1.742333833288687 12.601744240779892
217 5 8 7.354743359986391 1.840316142137328 10.917361620919145
218 5 8 5.9648885786775985 1.4578176940322891 9.976119617791554
219 5 8 7.12980939896182 2.194035436069804 9.027881810495385
220 5 8 7.862132073147691 1.0098700285600621 8.505341733345027
221 5 8 8.919967561633428 0.26449765408510945 7.559824307625944
222 5 8 8.200757666198477 -0.015305533931062914 8.767744954355866
223 5 8 6.341483157560323 -0.07219436755303743 8.400680038716507
224 5 8 7.119196107741563 0.41824569268484435 7.732949728619334
225 5 8 7.534946662123689 2.1191244600106858 7.382551612634505
226 5 8 6.737164642661361 1.342304472025214 6.404693390642054
227 5 8 7.659863038185285 1.305425003131079 4.5341511301160144
228 5 8 7.729848301124486 2.3693847024251298 4.825393097634824
229 5 8 8.895094603801159 0.9686367996489548 4.60294773247549
230 5 8 8.435315653913298 -0.13963668880552854 5.227478199465174
231 5 8 8.489572771306428 -1.6148214421656988 4.334811534951715
232 5 8 8.669084994382276 -0.7785698910283109 3.2279434569021768
233 5 7 9.66959523693164 -0.8657870627604011 2.8591067602893117
234 5 7 9.981379385778386 -1.5694853332826304 2.303913060201733
235 5 7 8.754370823892277 -2.485523458184521 1.7648047218671983
236 5 7 8.038286563921922 -3.7645789728950882 0.4151196990228851
237 5 7 7.795733210122421 -5.020791603782699 1.1389060751435431
238 5 7 6.1649460661603595 -5.351380337516757 1.3323441775408562
239 5 7 6.789150166262831 -4.558566668165315 2.0145043007349734
240 5 7 5.646830126931764 -3.2558536789438883 1.094992983737874
241 5 7 6.667525222044622 -2.3903499694655626 1.0049602576833507
242 5 7 5.126226253747299 -2.7890233940348943 2.9434222043174647
243 5 7 6.646691405823444 -0.7960002618740794 3.052004333543996
244 5 7 7.140724106946707 -0.6926022032707406 4.754934096344291
245 5 7 5.901316139049471 -1.0383373504022535 4.431059477592491
246 6 8 0.10290192516735987 1.8876065789503331 5.465112511128033
247 6 8 -1.9332674830873215 2.2932732448433213 5.427265998647331
248 6 8 -1.7746659025611453 3.4909568601696437 4.94251868105866
249 6 8 -2.5296214308262677 3.4329961556619937 4.3127098877276415
250 6 8 -3.326454078655914 4.187670411570952 3.7731568839152834
251 6 8 -1.3136001013870313 4.65299223985451 3.8805911142924923
252 6 8 0.34056969362298284 3.554270161115527 4.418757053084752
253 6 8 0.40593005890713363 4.524825941148533 5.255157853652281
254 6 8 -0.7468407654877752 4.061888391641557 5.175261598465991
255 6 8 -2.208000124621732 3.2282692640535973 6.287080189456293
256 6 8 -3.3181950808824854 3.250544543954171 7.018923053467052
257 6 8 -4.07495420810532 4.279992949224729 7.5056643860141845
258 6 8 -3.6998575832578533 6.190174569390576 7.4698415203459385
259 6 8 -3.7721760304171847 6.838420032304935 8.567858897026822
260 6 8 -4.7464351709844195 7.269104106683305 9.113590396238687
261 6 8 -3.809214229171493 6.3707074805122055 9.827767195459412
262 6 8 -3.4811358928166576 5.296790345212765 9.481106028774008
263 6 8 -3.223578003831832 3.8667283205621157 10.415213696872435
264 6 8 -2.883636226433439 2.5389541041915176 11.063956006070553
265 6 8 -2.6947543557378184 1.6996107566709102 9.488605550550703
266 6 8 -1.951495264702408 2.346818932830833 10.32083925313598
267 6 8 -1.7404541205891488 1.0537368688527704 9.588972191118998
268 6 8 -2.6356830231087147 1.2138904700593747 11.165603656922173
1034 46 10 -1.7871323979361562 0.2754110439497411 10.942273024999276
270 6 8 -2.8014639227232987 -0.32535914602512345 12.114016373721226
271 6 8 -1.9428021384082088 -2.0161524296595954 11.978514874250434
272 6 8 -3.049987283076836 -2.9921332026972998 12.46762234657578
273 6 8 -4.2335069687490305 -2.736406335454672 13.396186055832391
274 6 8 -4.5790164903779225 -3.2771584140665557 12.533377983867066
275 6 8 -4.134680734173996 -3.4272428749517587 11.12192819065463
276 6 8 -4.00623694981679 -3.3483023925682605 9.607766571109009
1033 46 10 -2.9025081750007726 -2.8938721963385445 8.891189683999828
1012 46 10 -3.7579801208544694 -1.8549147561650303 8.295949498853851
1026 46 10 -4.702817383475942 -1.288780196544944 8.480277725529396
280 6 8 -5.690951134567937 -1.1233117021888288 7.718604976131449
281 6 8 -5.529153783225354 -2.359701413506894 8.842915489559397
282 6 7 -4.553963765290643 -3.065009777452732 8.465761423683798
283 6 7 -3.8091759796577334 -3.0732014901720874 7.1707898206824074
284 6 7 -5.675752931791396 -3.805179464735415 7.522182403137257
285 6 7 -6.203106409849936 -3.661063359215824 6.258807839476619
286 6 7 -7.0370814767822 -4.688480792224209 6.439820000140697
287 6 7 -5.724317147202183 -5.838321056667774 6.606757024400754
288 6 7 -7.060220235071848 -5.300755634609174 5.8009788276841805
289 6 7 -7.20569805136971 -6.828895114481713 6.450903000761352
290 6 7 -8.340366270823477 -7.390707511781843 5.001081301450067
291 6 7 -8.93768440487137 -6.026968296156858 4.643946302361864
292 6 7 -8.816779584312332 -5.088860770154664 5.600386118572797
293 6 7 -9.735079702040574 -4.495432425273694 4.795188654074542
294 6 7 -10.294329316107934 -3.1443332880741126 4.541081056574462
295 7 8 2.9906170764824664 13.314875957872887 7.422490577576469
296 7 8 4.087234393854857 13.482294861504005 7.750047786076943
297 7 8 3.6223231029077985 14.289762750743009 8.555702132304793
298 7 8 3.0334577989837777 13.058789918070977 9.42044695411931
299 7 8 1.6920218182663134 12.632345289492678 8.160015651758975
300 7 8 0.9590943594682705 12.726832376472993 7.364233142136408
301 7 8 1.4814759701175306 13.493795659120865 9.04772093754233
302 7 8 0.6432812856627506 14.636374953213265 9.198610701709503
303 7 8 1.1903113060179782 14.070936008807989 10.41061536802733
304 7 8 0.7853037412187464 12.898322667571755 11.67613295337015
305 7 8 1.0320556672044163 12.858443194232466 10.485341549663305
306 7 8 0.04598833672085104 11.251757788533434 10.60839405633345
307 7 8 2.12914459869851 11.167193334292362 11.037855945329527
308 7 8 3.131153419715454 10.56541538144238 11.56641581681868
309 7 8 3.9226096957031658 10.097971464241674 10.600762774214196
310 7 8 4.892322831264705 11.300581664046405 10.247015931857895
311 7 8 3.6199116889023673 11.279774547292265 9.745066147678743
1011 46 8 4.187638862732204 10.434926998065468 8.535496665482816
313 45 8 4.154393224550278 9.021022440203373 7.978077847937009
314 45 8 3.3766174130626805 8.167811963534685 8.135752376303529
315 45 8 3.1115086444403928 7.437918949273747 9.053140998489528
316 45 8 2.897230159977751 6.398877563229825 9.759352611988344
317 45 8 3.0099622002820365 5.499177097307502 8.927739715134338
318 45 8 2.899626776475896 4.050102823661374 8.450624163094895
319 45 8 2.9270501391331902 2.484247499525128 8.124690508747456
320 45 8 1.7527677997639903 2.6450339835467114 7.334011659989782
321 45 8 3.1890390208407147 2.502844543550117 7.128320078643574
322 45 8 2.5931340744675047 1.700172586172331 6.41684965223635
323 45 8 0.5043845464151133 1.6952219777565403 7.454327797438261
324 45 8 0.64261789187457 3.5606669146535097 7.763764094639705
325 45 8 0.6798271299430896 3.0134792647562 8.734081823610003
326 45 8 0.6629133062112995 4.55888391877225 8.418034669252398
327 45 8 -0.37032245925186763 4.493869688125194 8.974932832130268
328 45 8 -1.3015096086887736 4.099887428292639 9.233155467094258
329 45 8 -1.3427986528571156 3.8829465613981133 7.854434167882373
330 45 8 -0.8852432412541094 3.2525501993379007 9.62588310649993
331 45 7 0.14547796353800943 3.268508503772275 10.023933003422291
332 45 7 0.32708639376207865 1.7417708253125601 9.925571843729792
333 45 7 -0.35313712617133625 0.5620832734340022 11.603877945500482
334 45 7 -1.7527829843565448 1.5784905241864702 12.733627584997578
335 45 7 -0.3816678890276432 1.7377633699649693 12.015338421113817
336 45 7 1.3581782084199143 1.7621294480314884 11.98313041958327
337 45 7 1.5514503480019874 2.484602450834012 13.708249968657455
338 45 7 1.3711072592929223 4.672416483780719 13.196142790081261
339 45 7 0.5857739977581771 4.577584185406238 14.330520250246593
340 45 7 1.819544392783975 5.879749109467691 14.638663019264895
341 45 7 1.2561996119471133 4.588548515318533 16.19566111016353
342 45 7 2.012192587755453 5.848883152886467 15.929958337141263
343 45 7 2.946780489265321 6.1768386175573635 17.292281720228473
344 8 8 5.7393108594434175 18.603890356431922 -8.416927988290317
345 8 8 6.226135916229151 17.39266428494872 -7.572982001662944
346 8 8 5.254054080437408 17.195028363455176 -7.949509331619644
347 8 8 5.35399901877417 16.107661522728037 -8.698177453831093
348 8 8 5.954690057395984 16.302113654750627 -7.648377289588449
349 8 8 7.331202635000532 16.27998576346274 -8.66413601289588
350 8 8 7.652432390625762 15.325648218664444 -8.99987059017171
351 8 8 6.980606901307478 15.302006867996642 -9.91934134844166
352 8 8 6.093188194470147 15.844299442614036 -10.446776342385826
353 8 8 5.620639093590314 14.82600669014223 -11.107553844988999
354 8 8 7.0529468025475515 14.79537701712352 -11.640178111272236
355 8 8 8.320727152920934 14.684456259898644 -10.595651346755695
356 8 8 7.429683988859254 13.552406114197547 -11.81273378241768
357 8 8 8.871414175997772 13.08936371932534 -11.44274150769119
358 8 8 9.62505718607165 12.467910628269689 -11.293955088104658
359 8 8 8.931383737872235 11.166443775327458 -10.91804173817413
360 8 8 9.923952875930889 10.474780003933722 -11.443090174047999
361 8 8 11.33629401165901 9.940639156413855 -11.73749481841852
362 8 8 12.156358337648516 9.112085986219252 -12.254066931023889
363 8 8 10.809720919935478 7.403845912261362 -12.724157210183195
364 8 8 11.939134248545493 7.137584752357299 -13.42273408027148
365 8 8 11.624612925670716 5.8803653568864265 -12.762575885468808
366 8 8 8.709248854271603 4.9120636824469015 -13.028863886253609
367 8 8 8.827576763882993 4.694934241095542 -14.376430730996479
368 8 8 8.86358152169829 2.7337299759360527 -14.116930214774879
369 8 8 7.793156158486675 3.573432894164009 -13.342534037553099
370 8 8 7.830961236251307 4.550234106843069 -15.29340919885515
1038 46 10 7.963508579240032 4.639764555847077 -16.30400344826103
1035 46 8 10.730080215740513 4.397421336495007 -17.653455667054157
373 42 8 11.438270509334505 4.318837351780318 -16.70106050002084
374 42 8 13.068503540982835 5.006676511569873 -16.833857993655815
375 42 8 13.38430868687768 3.0950281307102014 -16.742518980366537
376 42 8 12.602051205310573 3.683026371076273 -17.50868373274603
377 42 8 12.199601538613228 3.487424536252222 -18.6711538915231
378 42 8 11.276907618450114 1.9150458869110623 -18.579057821155097
379 42 8 12.988760832071838 1.5599534722217767 -18.61454476543304
380 42 7 14.196437369291568 2.050201086365195 -17.820309848406826
381 42 7 13.806656516035359 1.462939688405778 -16.571640028844886
382 42 7 13.42560878391703 0.4505793750413904 -17.718782703427713
383 42 7 13.739318304553986 -1.1824533161999686 -19.257748107256834
384 42 7 13.291031213352904 -2.4995915982250487 -19.597376786964606
385 42 7 14.2492271708401 -1.7610330569246078 -21.173859169847102
386 42 7 13.897576967696331 -0.4439679836526106 -21.739149156518213
387 42 7 14.91901738257837 0.028163479657813722 -22.632681152384777
388 42 7 16.10433827842536 -0.6725873188207363 -23.061983778895286
389 42 7 17.14958760015885 -2.620964271327828 -21.24947048367674
390 42 7 17.575704527198763 -1.2630803234813146 -21.551091684152393
391 42 7 18.51803260391902 -0.18389548544817277 -21.415634912376955
392 42 7 17.397108283711347 0.5712630550010972 -20.26237512819561
393 9 8 -5.184118779469107 -3.1064517735229864 -15.252889038892295
394 9 8 -5.0075280541390175 -4.559659227595752 -14.495207085984243
395 9 8 -6.227058863029689 -4.146917350613527 -13.926574334085698
396 9 8 -6.5758040516740435 -3.010565536878646 -14.474241058516508
397 9 8 -7.1741423008651894 -2.8505539121157275 -13.220133431971165
398 9 8 -8.233420497173052 -2.037024468980689 -13.697900702967415
399 9 8 -8.054419445695965 -2.2938750839558466 -12.596963157208828
400 9 8 -7.309703924433299 -1.6202800307982212 -11.720307615028478
401 9 8 -8.262031011012997 -0.06775709478174895 -13.413148041730864
402 9 8 -6.895672989591955 0.4367576815168043 -12.763944857080261
403 9 8 -5.088790572787932 0.922340420991075 -13.366465684401138
404 9 8 -6.008520291385996 0.06932875573510965 -13.164346287680468
405 9 8 -5.856183354443316 0.5696387387289252 -11.320577435824799
406 9 8 -5.8628203676838275 1.7849437101221317 -10.38924192999761
407 9 8 -6.361769450651631 2.068689127793744 -9.495172834064759
408 9 8 -6.3613238916803425 0.6399771639811141 -9.233831723243428
1010 46 4 -4.532695611019717 0.6984599577930731 -9.005602501521304
1022 46 10 -7.791785694227696 -0.02601660546326707 -9.060351051825846
1016 46 4 -5.419668988347984 1.6906995928439195 -8.000691487988476
1029 46 10 -4.484728501334451 0.6181678032130942 -7.661414514593526
413 30 8 -4.781868664616195 -0.9882298691975703 -7.124761595882627
414 30 8 -6.064106319710944 -1.3691786407319184 -6.865788299077726
415 30 8 -6.472090025543597 -0.3205586531546108 -6.74672996705841
416 30 8 -7.887274815362475 -0.23398001702999613 -7.516603606704535
1021 46 8 -7.303053801673946 1.9448221779601698 -5.20488727813369
418 32 8 -7.096469628701518 -0.2549236697572314 -5.885814626844802
419 32 8 -8.304464070414042 -0.33069147291489187 -5.287256166846873
420 32 8 -8.784208993869806 -1.167246374595788 -4.411265461462762
421 32 8 -10.493359260035795 -0.9537162900542596 -4.926388807362418
422 32 8 -11.38829855088214 -1.6727336194390947 -5.777954419962179
423 32 8 -11.238685221216535 -3.1293442126291464 -5.959161602048524
424 32 8 -10.910403017175506 -3.6578432342111915 -7.248279598803703
425 32 8 -11.890493431433057 -4.686817972712844 -7.951770279941711
426 32 8 -11.079631528457657 -5.035391517484621 -7.169215221846051
427 32 8 -11.351830096129683 -6.59500647386924 -7.91199864139292
428 32 8 -12.45483107141665 -5.711496038594308 -7.682246129841393
429 32 7 -13.78246910888743 -4.973165325708908 -8.947560759166926
430 32 7 -13.13638116809794 -4.008518298469477 -8.738134066957208
431 32 7 -14.259539217559425 -3.8820859930372835 -6.872986760608721
432 32 7 -14.451141426639637 -5.1238314063890495 -5.956964894643177
433 32 7 -14.336028751783351 -7.192519035479351 -5.066858039202202
434 32 7 -14.351657818892294 -7.936889046031948 -6.627614751547521
435 32 7 -13.546477853634643 -7.2436450185190555 -6.800301306200945
436 32 7 -14.380043029899287 -6.346798030122852 -8.00208369215941
437 32 7 -15.00585645567875 -7.776350785733198 -7.322668380486674
438 32 7 -15.258327287864748 -9.762561119867996 -7.5044145701543865
439 32 7 -16.776821426389034 -8.819649059067382 -7.0153039151369105
440 32 7 -16.09266699401375 -8.039473112080655 -6.185893904003945
441 32 7 -16.412893617017634 -9.064158534897162 -5.451495169207117
442 10 8 0.3998118353741736 15.899554770485718 -1.2777912970789689
443 10 8 -0.5340093631354571 14.738668219570577 -2.5932905429634916
444 10 8 -0.6697495385004664 15.905451449578702 -1.620038628071777
445 10 8 -1.3234496069846433 15.963030571172181 -0.2617435759854905
446 10 8 -2.549834755459797 15.509813500894468 0.09256758506451522
447 10 8 -1.540146211501512 14.638395507599062 -0.12284216853625103
448 10 8 -3.5889655159019935 15.414392962028792 -0.7033832046241395
449 10 8 -4.387353809703441 14.639601620002834 -1.1995071576929974
450 10 8 -2.9110942901691246 13.993538494196615 -0.4123818752893949
451 10 8 -2.90116672094742 13.28974524388273 -1.5579332726335446
452 10 8 -2.284780659757959 12.127626296149426 -2.1050129899778063
453 10 8 -2.5781437321252594 11.186675630628297 -2.744186101355574
454 10 8 -2.9587306619036027 10.12855295154113 -1.3800222520229244
455 10 8 -3.4024380079181054 9.87137809558052 0.27869992952309874