# Generated from readdy-to-lammps

1005 atoms
726 bonds

10 atom types
1 bond types

-30.0 30.0 xlo xhi
-30.0 30.0 ylo yhi
-30.0 30.0 zlo zhi

Masses

1 1.0
2 1.0
3 1.0
4 1.0
5 1.0
6 1.0
7 1.0
8 1.0
9 1.0
10 1.0

Atoms

1 1 8 -15.393583920348544 -9.106019597649441 -11.937008528191429
2 1 8 -15.684279178992377 -9.112270636684983 -13.467282481715122
3 1 8 -15.145070404064969 -8.213319867232748 -15.341347487255955
4 1 8 -14.81397182067856 -8.893430195842242 -14.705960821988757
5 1 8 -13.598279422518923 -8.423722137823116 -14.237008828308758
6 1 8 -12.065643272079116 -7.498954889524072 -14.535698829725217
7 1 8 -12.51129086156662 -6.142988098086272 -13.93819968180844
8 1 8 -11.413397066107466 -5.337974757640244 -12.734172452695624
9 1 8 -11.447731889294865 -5.640980431153324 -11.081415449345684
10 1 8 -12.526595114422772 -4.458872765661156 -10.430326287229878
11 1 8 -11.29340150785549 -3.9840587163006913 -10.21075481717279
12 1 8 -9.74551647065079 -3.5287257971182835 -10.47630588266854
13 1 8 -9.527974482826663 -5.104395424642442 -11.26363535866309
14 1 8 -8.90243593115805 -6.030303150246931 -12.420092853110575
15 1 8 -8.764083605601176 -5.80841250874169 -13.496835009036593
16 1 8 -7.321087511067473 -6.697329640343016 -12.879480086322301
17 1 8 -6.219475326820213 -6.246703200710474 -12.122691900698898
18 1 8 -7.443421455304585 -6.375306359422641 -11.746769766046365
19 1 8 -8.296861192796033 -7.129932879039784 -11.148726996008156
20 1 8 -9.06011708615807 -8.61054525039259 -9.65306941422189
21 1 8 -8.832126082999597 -10.015913162064523 -10.011265415585449
22 1 8 -7.8993716123223425 -9.26060111384088 -10.081426106349948
23 1 8 -7.6570495257870705 -8.260219833731862 -8.755792404242596
24 1 8 -6.670271269779643 -7.600764457325887 -7.5567748705367555
25 1 8 -6.975087753685455 -7.0760393054415545 -6.641607905709843
26 1 8 -5.832530862894727 -6.913946003873497 -7.746266659124491
27 1 8 -5.818681720954523 -6.724484575120981 -6.521896833384457
28 1 8 -4.204127743924664 -6.297030614735741 -7.414131448575283
29 1 8 -4.6494979001148335 -6.831289753779619 -8.557282698951678
30 1 8 -4.925435499197937 -7.15188443146915 -9.480085796119095
31 1 8 -3.7523804666333347 -7.247660651285184 -9.013190165759239
32 1 8 -3.9301728073234177 -5.801011998828836 -9.060709527896709
33 1 8 -2.340035879184738 -6.158167323741847 -9.297586029794028
34 1 8 -1.9240166931239453 -5.717562027814882 -7.992431031528853
35 1 8 -0.8685858325004744 -6.137720111155014 -8.44235301769349
36 1 8 -0.7498430163094698 -6.623283367131954 -9.700116263306203
37 1 7 -0.10137536752610284 -8.023905152482174 -10.860798377677254
38 1 7 -0.4049674300120134 -7.970273815911594 -12.580448134003754
39 1 7 -1.9575111145516764 -7.213928238039277 -12.089541832448301
40 1 7 -2.9312922129426235 -6.682791101869788 -11.543978087578088
41 1 7 -2.1399631940516253 -6.38362116857591 -10.574927722863308
42 1 7 -3.5390529740351746 -5.715631465955083 -11.141202995382866
43 1 7 -4.073528919508902 -5.573830307442363 -12.511509262758171
44 1 7 -4.133528263400005 -6.190571111432327 -13.261637470644521
45 1 7 -3.2112325943465616 -6.6163306862035185 -13.949626224908059
46 1 7 -2.810212033556127 -5.248205024347855 -13.935092103125196
47 1 7 -1.528621793433148 -4.401007307692912 -14.583921996219873
48 1 7 -1.5723957677418492 -3.3081053217997534 -13.272228857917218
49 1 7 -1.0436832767936852 -2.944256783916167 -14.693730811360862
50 2 8 2.8702882339221705 -1.5045543597139488 -3.726625293081592
51 2 8 1.8376525615019317 -2.5003347005443466 -2.9857528081060467
52 2 8 2.0798303376024068 -2.806299561904747 -1.4676988721590758
53 2 8 1.8442011006443315 -3.346489510363169 -0.3558769468486598
54 2 8 1.068831589211153 -4.448590930575106 -0.45530472760297586
55 2 8 0.4842116926568232 -5.26414177122028 0.010049422776127189
56 2 8 0.6656148144575308 -6.104395625954708 1.09775979225336
57 2 8 -0.3289052931836347 -6.298077097914606 0.1814450852270773
58 2 8 -1.1715131149403861 -6.540662800802549 1.3091781988393687
59 2 8 -0.9526528879764369 -5.637633387714893 2.4347791134008197
60 2 8 -0.6355438104755855 -5.871554852171734 3.5510505464421587
61 2 8 -1.8266354625987005 -4.538501101738694 5.223850337261247
62 2 8 -0.943017989717875 -3.7060296706802625 4.324031280104458
1007 30 8 -1.828089821102724 -2.6098200940275453 4.314028486783166
64 27 8 -1.9950374644256605 -2.6308106179578306 3.1552359519108832
65 27 8 -2.2168295515183525 -4.323576814038305 2.674610917880841
66 27 8 -2.901678953487581 -6.320860525211374 2.570586044243365
67 27 8 -3.6118749046820096 -5.38383002211621 2.506416326066161
68 27 8 -3.4523349142621873 -4.223125176305371 3.770411924772014
69 27 8 -4.149728077400749 -2.9967085610695223 4.5447969958376255
70 27 8 -3.368867681936937 -1.795555056110502 3.342286035551797
71 27 8 -2.792031782854508 -1.4465505833015535 5.015996008251353
72 27 8 -1.9866702283171975 -0.09380670408627222 5.20765714768219
1009 30 10 -1.9074843746581858 -1.3902649597140537 4.3559326884444545
74 27 8 -2.73559011862814 -0.22627512797672777 2.950416725602055
75 27 8 -2.742076132951184 0.7136871250013055 1.292219096239872
76 27 8 -3.409739121959937 1.54997173893333 1.0972526448230195
77 27 8 -4.44837164973965 1.7602073527953657 2.0250140297156873
78 27 8 -4.72628615950281 1.7739274110971472 3.161433917516997
79 27 8 -5.283876256450857 0.9022104083522049 3.8862471131934253
80 27 8 -4.305644496230555 -0.5481969679685981 4.544131882343949
81 27 8 -3.198100983990449 0.26273832113805307 3.855214683650962
82 27 8 -2.976843897498734 1.9696529644260554 3.248039510738034
83 27 8 -2.6446240815440536 2.6001173318426933 2.3001433248873933
84 27 8 -1.947175913065654 1.111665387446769 2.9414893392377
85 27 8 -2.6411669768623405 1.5268942729944137 4.193143179954144
86 27 7 -1.0380556807056833 1.3542339437925883 3.79553544142294
87 27 7 -0.02524056414169777 1.4222149516937583 3.0419910223381685
88 27 7 -1.0892363996212435 -0.14037362446931198 2.536923304422177
89 27 7 -0.09080701697222783 -0.7931575831877817 3.2424897851162973
90 27 7 0.4640230906289427 -1.601703711962299 1.8667142575765008
91 27 7 1.030911268387878 -0.014562212267444375 0.8220976496877763
92 27 7 0.3606001230295843 0.4670169142783736 -0.6895089364462864
93 27 7 -0.4300249733402041 0.8151566301333396 0.3461193079501741
94 27 7 -1.4114286019057678 0.7215669837345646 0.35860122660419425
95 27 7 -0.9709485675223574 0.961097644004099 -0.6276264238941536
96 27 7 -2.0608641234906226 -0.1380596030191608 -1.0591520683124007
97 27 7 -1.2585048896771658 -1.711994444999403 -0.5964598694418934
98 27 7 -0.743107440096221 -2.7631552794784975 -0.5301659516297531
99 3 8 -2.8166590580661643 -7.745396941021979 -0.15267124603644217
100 3 8 -1.762823600357641 -7.490987569135781 -0.2203981618504856
101 3 8 -1.7483202096448767 -7.365471157924609 1.0857139655882344
102 3 8 -2.858638263865006 -7.5673767545638535 2.3523556631176774
103 3 8 -3.5800465327746127 -6.538946471364188 1.7153273524833883
104 3 8 -3.911159831065023 -7.634641037142399 0.802949374222306
105 3 8 -3.9507413204563195 -7.677454839935634 -1.1459109598309216
106 3 8 -3.5796987018558606 -6.536550786546234 -1.985359844936596
107 3 8 -2.307802868543301 -7.079066858825727 -1.5672282579692443
108 3 8 -3.1745279236318784 -8.880470993658376 -1.7607552208918704
109 3 8 -2.352178378840056 -9.63650898969504 -1.6530685203892719
110 3 8 -3.7018110986951758 -10.343385655128365 -1.818982615338593
111 3 8 -4.172234415525074 -9.161358761029328 -0.6136816024168407
112 3 8 -3.199839130883266 -10.017756244025126 0.4286676904889541
113 3 8 -4.0301128182596475 -10.754451019116468 -0.06446214520911456
114 3 8 -4.275374498639983 -11.64342458680457 -0.3808213969547983
115 3 8 -4.802799148857993 -10.515787723769499 1.0467407755381584
116 3 8 -5.382153265270021 -9.668762383456436 1.339360716010532
117 3 8 -3.613074352818479 -9.512180792723031 1.5443685147110344
118 3 8 -4.344410381596265 -9.162488313766636 0.742248920730389
119 3 8 -5.513518371060932 -8.459489682714915 1.7870804258621045
120 3 8 -4.041977351490239 -8.192208130257324 2.403858081229151
121 3 8 -4.876290064295773 -7.533369386056036 3.2637869872333
122 3 8 -4.444748246317931 -8.806038430368554 4.001883965286165
123 3 8 -4.264681904121315 -8.659320953439194 5.401016385403787
124 3 8 -2.790650872493005 -8.521152065485577 5.18698431506161
125 3 8 -1.4962319461704658 -8.768090662142006 4.4040001345957105
126 3 8 -2.3076774535580005 -9.57318828354824 2.7496521021412814
127 3 8 -2.8195599903406667 -9.322949570387943 3.8138458152505965
128 3 8 -2.604967548459076 -10.331172947084873 4.8492243406908155
129 3 8 -2.443476973330148 -11.472394562693268 3.5999536398163694
130 3 8 -3.8318013535702713 -11.907204051104765 3.220282840037279
131 3 8 -4.81172808608715 -13.158795712079462 2.720109394816213
132 3 8 -5.40077804392288 -14.502014571656693 1.9285403600634912
133 3 8 -6.697407314169109 -13.531490287205987 2.5993607601104016
134 3 8 -5.926908266200081 -14.454708132147127 0.6514187414763797
135 3 7 -4.505657997361599 -14.873787150811475 1.4227766869938634
136 3 7 -4.3882630996366565 -16.05043783706147 1.6477916780694197
137 3 7 -5.460178412778716 -16.06987748970123 0.24897017419511788
138 3 7 -5.426014797374432 -17.3307878300282 -0.5778965396202808
139 3 7 -4.689858015804986 -16.18384580365337 -1.374893515524418
140 3 7 -3.3941161149429067 -15.998575422383805 -0.33655384755223616
141 3 7 -4.152490491968955 -14.546353417374945 -0.8578610383073565
142 3 7 -4.690858340086022 -13.938942723255066 0.4136945631054867
143 3 7 -3.268219658521965 -14.826540019179888 1.238764662922867
144 3 7 -2.987940773340431 -14.175076494217567 3.0035986253397917
145 3 7 -3.3005526053176095 -14.330429798057903 4.36744386917767
146 3 7 -2.7884076608223607 -13.459728713678473 4.754488001703951
147 3 7 -2.567511347401839 -14.380536987631103 5.391865239055421
148 4 8 -0.733793897483174 11.685295640863693 16.59275657237368
149 4 8 -1.5656832636164275 11.012819762655404 16.371813379202084
150 4 8 -1.8917066951674542 10.977038907979766 18.011854459314822
151 4 8 -0.834958027759805 11.220129389056318 18.280439132945123
152 4 8 -0.5187466306930782 10.099451093709678 17.156726215608202
153 4 8 -1.2795995398761169 9.326507502964965 16.661995300733246
154 4 8 -2.095861599085019 9.917752483077429 17.305987814417396
155 4 8 -2.8915031138773357 8.494118114170451 17.7459860903009
156 4 8 -4.239781058336948 8.713818891793892 17.64863515765622
157 4 8 -4.571985714807798 7.232172699340534 16.351261953969708
158 4 8 -3.1404707135881544 6.64860125139855 16.825592499611265
159 4 8 -1.3958566765669733 5.997967797732061 16.877087016250748
160 4 8 -2.56992846576177 6.050128773937726 17.97071246361672
161 4 8 -1.1529193685638344 5.832513966424273 19.1197716667985
162 4 8 -2.7325324310906063 5.629029993569789 19.0314332546333
163 4 8 -3.1531245753576775 5.4550141797949605 20.60975942642439
164 4 8 -4.48355457163343 6.081263103748118 21.19478934979377
165 4 8 -5.6180198147576315 7.143758225671607 20.81981809469376
166 4 8 -6.570001666548333 7.15357338585245 21.7899002689883
167 4 8 -5.088737732224786 6.807631372514968 22.11624954124064
168 4 8 -5.749676284055969 7.4768752018612465 23.660340693763068
169 4 8 -5.283425461927917 6.664866509797141 24.114039620351818
170 4 8 -6.1082591102558546 6.190808807739413 24.879054863189136
171 4 8 -5.39773643038522 4.909471024903174 25.158074614381302
172 4 8 -4.483004878883225 4.343193751663324 24.835958692776078
173 4 8 -4.354996867844078 3.231265799431613 24.728371790120047
174 4 8 -3.5584660360513456 2.5222575716301145 25.341899188210906
175 4 8 -3.4793597629735467 1.388000008224226 25.73326362280973
176 4 8 -4.67631389020824 1.0899508344950606 25.12256450476631
177 4 8 -4.195305401946828 -0.13424432965607486 25.89443819362877
178 4 8 -3.0429732400018232 -1.2200735361295394 26.356358853258087
179 4 8 -4.05435925149338 -1.1110432363305232 26.523701324574944
180 4 8 -3.990695469917015 0.4904488934799331 27.191787951103702
181 4 8 -3.848804012197313 -0.3324269517006016 28.093905600909817
182 4 8 -2.477724660155096 -0.10019948150506396 28.61495501471996
183 4 8 -1.0748040868037432 0.0014596661422650935 27.682980970953498
184 4 7 -0.15042461453617606 0.5004579690720625 27.50831902935215
185 4 7 0.9357196357964904 0.2095411749735203 27.221390076626268
186 4 7 0.9808726018317308 -0.2626309800734606 25.73753227654003
187 4 7 -0.6145865714858503 -0.11973013339895662 25.83338983150914
188 4 7 -1.4213636272142263 -1.3440305125420582 25.086645515605248
189 4 7 -1.1715549463874384 -2.4461488644456932 25.25603584059077
190 4 7 -0.8085971022815032 -3.190097729949196 23.66078905559715
191 4 7 -0.6320252670125316 -3.4281435566105074 21.95693963971934
192 4 7 -2.072866262993115 -4.829584721082209 22.09844622115065
193 4 7 -1.508936659395782 -4.4561678744229445 23.428315934327923
194 4 7 -3.2734850706207856 -5.233386277221778 22.6533912552962
195 4 7 -1.9460200169661601 -6.07398064652234 22.882918015961543
196 4 7 -1.4643441045495902 -7.564935319447916 23.363906491210987
197 5 8 -1.1365076558985674 -4.740877309483809 11.89010374740093
198 5 8 -0.22491702440962022 -4.881266583022534 12.389943352913455
199 5 8 0.19255906606784626 -4.987147193846538 13.925600755233983
200 5 8 0.923237363468361 -3.8550690329339083 13.554805718725255
201 5 8 1.518175637222294 -3.2598673011500123 14.812502538913323
202 5 8 1.4841490291716155 -3.439149421181373 15.939178903829694
203 5 8 3.0627062570659196 -3.025404376702953 16.034441048029763
204 5 8 4.367269543024682 -3.6210222745954668 16.80158017354323
205 5 8 3.5935510661860994 -2.571394291883843 16.913682136844248
206 5 8 3.067622935478179 -1.595667985683949 16.6041474178376
207 5 8 3.398874587972552 -1.9910214629842928 15.563064816835887
208 5 8 3.5450877531385476 -2.4870832267339242 14.038708815052363
209 5 8 4.396906265690143 -3.420659966642198 15.382933273387545
210 5 8 5.920225344520148 -3.883229259764569 15.002656073272876
211 5 8 6.13335236881324 -2.953716487415434 14.630756722200049
212 5 8 7.091965915080724 -2.3729237402438326 15.084935823708703
213 5 8 7.196380370368845 -1.0293949203841337 14.458042008626993
214 5 8 6.510792057592182 -0.19417975588073352 12.435914918695307
215 5 8 5.928481307789761 0.9933660618643182 11.717058580047794
216 5 8 5.858290433253281 -0.3109957105638348 11.303392730733753
217 5 8 5.5385924679359775 0.8270280712044933 10.410715628140832
218 5 8 6.7869363759015116 1.4655889582862542 9.433035318045237
219 5 8 7.8000071304030385 1.0894562576088493 9.730231873369165
220 5 8 8.233680686558797 1.485685000011748 8.37396093485158
221 5 8 9.474632000319183 0.7841387043577531 8.799243988243242
222 5 8 7.815668778757427 0.5065156817459435 8.927443797897933
223 5 8 8.506352620027112 -0.2479723772159125 7.419315940911245
224 5 8 8.20008162966227 1.3204434893686399 7.021854902869968
225 5 8 7.360986188494734 0.9527233460508452 5.600518232878077
226 5 8 8.29741898374045 1.8230959754225364 4.403525233571886
227 5 8 7.190836606995414 2.1965358747687094 3.648467006355821
228 5 8 7.930826992617096 1.6139942787858899 3.0839322329031735
229 5 8 9.632824046548194 1.6057019019801657 2.865312230338673
230 5 8 8.808519787681524 0.4967882128117418 3.0395019204076745
231 5 8 7.753422029348575 0.15139606197409672 2.9625087540636383
232 5 8 7.567727129370567 -0.7318855026599863 1.5647704191287217
233 5 7 9.177213198222097 -0.7699880971761293 1.004156492405754
234 5 7 8.905517650381224 -1.539820378640295 2.031404668545704
235 5 7 8.335145952845007 -2.7039230419202664 1.468077965584696
236 5 7 9.429992156058377 -4.083268217048174 1.8431463385291298
237 5 7 7.926925823397808 -3.993624486450228 1.7411469868001714
238 5 7 6.921337791380427 -5.559988118733298 2.7578160565118575
239 5 7 5.359875611739443 -5.459473674343491 2.639788410381463
240 5 7 5.064185548045841 -4.03531763193351 2.202842347557674
241 5 7 4.792713006815006 -2.435884100956099 2.1898787020488357
242 5 7 5.310386607544757 -3.572963589158683 3.669122556713765
243 5 7 6.6533452292163675 -3.446853003989966 3.7056486681152165
244 5 7 7.319683692390218 -2.979301935968969 4.43984024190476
245 5 7 6.590469849572825 -1.9974856279807698 3.802817529176788
246 6 8 -2.9874565035933673 3.93828426019996 4.319995027061612
247 6 8 -2.3695258871499214 3.243654218192192 5.321754240289711
248 6 8 -2.899168468617123 2.6047193098418586 4.680403051306851
249 6 8 -2.7491244816519327 3.3274594086015026 3.0505923670302524
250 6 8 -2.756110808322715 3.827641053593936 2.1496933844887165
251 6 8 -1.4096402417569627 4.128322925524446 3.613726589732901
252 6 8 -1.0224908668330366 3.389783371566573 4.696892317689466
253 6 8 -0.19904984594303562 4.575176114430819 4.515488652243087
254 6 8 -1.4023877226869461 4.776230982451615 5.741899635660806
255 6 8 -2.8432863218516222 4.515692985444665 6.55982177147308
256 6 8 -1.3084221845560695 5.069349803736843 7.556463339613769
257 6 8 -1.5675636174269514 4.122219985344307 8.528750366373345
258 6 8 -2.648069281665568 4.334586626583675 8.688375653724993
259 6 8 -4.5990311282313066 4.881844083720182 7.9855622806019655
260 6 8 -5.310059851139007 6.109427155768721 9.543175171066522
261 6 8 -3.7163514311438313 5.143178241915787 10.309584273465186
262 6 8 -3.400743208088935 5.98063306486505 10.812000016747625
263 6 8 -2.4129589474725206 4.512274338736677 10.50522616439417
264 6 8 -3.763351367683744 4.127440520067199 10.246023582432247
265 6 8 -4.046398618173478 2.765912137974497 9.701480881241444
266 6 8 -2.773507042166307 1.9641063293890386 10.716075644490937
267 6 8 -3.335847498447964 1.589157383611169 11.811507721358288
268 6 8 -3.8505271953534503 0.4702158978040488 11.25910333881355
269 6 8 -2.5977332075827673 0.11059890960377951 11.19577056789116
270 6 8 -2.7762579800582547 -0.8403452936674656 11.385627339141232
271 6 8 -3.3025771573363922 -1.6182409887165463 12.002223079097282
272 6 8 -4.410170729747642 -2.4049343868702855 12.51708674936815
273 6 8 -4.295563056168856 -3.4858395157915236 11.984887471207195
274 6 8 -4.78456563961769 -4.586204981790865 11.9519451512048
275 6 8 -4.117317087206553 -2.5288526270802216 10.8361135053505
276 6 8 -3.1842003362364206 -2.3831404531645455 9.545196322381354
277 6 8 -2.648643357475594 -3.2853086660875563 8.765569980621963
278 6 8 -2.8563331474955205 -1.1730769555290557 8.698976911517324
279 6 8 -3.678778177820232 -2.381553249967744 7.232920191576996
280 6 8 -4.336321930348477 -2.4774225084964794 5.7557543579935615
281 6 8 -4.366296184604117 -1.43970109716463 7.841820140528059
282 6 7 -5.273646605159796 -2.4473970078817 8.188196388412775
283 6 7 -5.15407845121802 -3.928769290938679 6.963958527076778
284 6 7 -5.543797972454795 -3.064026306887053 5.89602298997905
285 6 7 -6.476304300784803 -4.257777329639359 6.003498359495346
286 6 7 -7.355280798203341 -3.290190916624636 7.294294880595688
287 6 7 -7.657678027635745 -4.815829882039332 6.41206636638654
288 6 7 -6.779418152691895 -5.966677584480349 6.1942739391903565
289 6 7 -7.288746677207881 -6.150275980518955 4.9738368994921585
290 6 7 -8.286119835252604 -6.96539833189337 5.167127666394418
291 6 7 -8.433619280781256 -4.966154620775135 4.7409059204081165
292 6 7 -8.572056267031389 -4.178367051303418 6.443560326360552
293 6 7 -8.804337305147 -3.1085932950727395 5.312363983179316
294 6 7 -9.085848640080604 -2.3501289142053037 6.567239568430788
295 7 8 3.7239188503139244 13.718536669559526 6.148001366407814
296 7 8 4.489722456187219 13.966764952887189 6.966199161105722
297 7 8 3.940086186147958 13.188721264018232 8.181076469635931
298 7 8 2.2088061402854966 13.595318775333482 9.23511869369954
299 7 8 2.8254883731133513 13.424633740859408 7.750779720129669
300 7 8 1.0531543681845392 12.672805346712632 8.374288464041587
301 7 8 1.0056165640496615 14.199783722648007 8.32155921347802
302 7 8 0.9109904659462537 13.940962427577118 9.72569386659652
303 7 8 1.221217953831369 14.193078665299202 10.92766215205496
304 7 8 0.7867080394369741 13.415975376204853 11.752337189173053
305 7 8 1.661940233718765 11.766749682349282 10.45590009143181
306 7 8 1.909777897361746 11.325081903778976 11.457833332729043
307 7 8 1.6242222477278896 10.56348311263653 10.34682530940248
308 7 8 3.3081883204451286 10.376359033073065 10.444884155709133
309 7 8 3.506340695559211 10.260974637210143 9.445300983832931
310 7 8 4.9494228103294455 10.763372424325459 9.246865457547985
311 7 8 4.465831412773413 9.662234762087857 8.822028955630836
312 7 8 4.980161061258784 7.854496988734995 8.250388398796765
313 7 8 4.114477424283662 8.299880841719805 9.434324343204173
314 7 8 3.6196399644095267 7.374710610070646 8.075104427566837
315 7 8 3.2618402887842084 6.811942626048297 9.107642923000078
316 7 8 3.8285878847808856 5.166585039611927 8.488936411851816
317 7 8 2.613178131204835 5.159052799110924 7.075469689053825
318 7 8 1.9919511408536605 5.152526151738357 8.170437212237045
319 7 8 2.0207865593688017 4.276269106037908 6.865338426681557
320 7 8 2.4357348534832464 2.3351921827022912 6.558113476190566
321 7 8 2.5228106948898597 1.6207079138648504 7.394697148019427
322 7 8 0.6095188694190417 1.2619095807915346 6.287829028318213
323 7 8 -0.42250595100582466 1.892769533296601 6.2323093090323205
324 7 8 0.42936765320003584 2.333178948886133 6.866317451321402
325 7 8 1.3443410941351295 4.03355784372429 7.674044981321428
326 7 8 0.8263166745904168 4.099475908403066 9.098039848592808
327 7 8 0.2624340916308036 4.936845047535016 7.911325229389162
328 7 8 -0.4522105665168945 5.04813092305932 9.25988058325213
329 7 8 -0.10857622379242857 4.181575438770189 8.568477738453424
330 7 8 0.28052576572066645 2.416029882563117 9.790833391798818
331 7 7 -1.5049576493533732 1.938701545618711 9.885609611428796
332 7 7 0.1595451244768802 1.6845819634022228 10.861143768324576
333 7 7 -0.8466014262843238 1.7445464736514862 12.208436267825599
334 7 7 -0.6689728942550396 2.7384622815513127 13.271128987125767
335 7 7 1.0417460037616022 2.361849879229376 13.403981583683908
336 7 7 1.2459824908073642 3.2990488922917 11.854257322338364
337 7 7 -0.02404317187790732 3.6502581604734634 11.338318240582128
338 7 7 0.7527480252033263 5.253943767912097 11.975711120431368
339 7 7 1.9135917585714832 5.824989213258592 12.456538507595782
340 7 7 2.4847397899954324 5.494157620438451 13.5061882667945
341 7 7 1.4071310516603621 5.8114065674614155 14.63083497291522
342 7 7 3.3511201110713498 5.813839244104794 15.000056698423553
343 7 7 2.6493527133890793 6.154661890078072 16.916068520638635
344 8 8 6.617227736016642 19.270834093373747 -8.637306387005832
345 8 8 6.998383789061203 18.33318756177055 -7.696419068458758
346 8 8 7.8602481650377936 17.238678569961394 -6.691934688683143
347 8 8 6.836317712456867 16.485407673070902 -7.708929027150543
348 8 8 7.823190772752883 16.797214859913844 -8.257351145620076
349 8 8 9.186337151361764 16.32078771436915 -9.62452070857962
350 8 8 8.173641990240805 16.30280255946875 -9.083109113262188
351 8 8 7.402645478203029 15.498195870992655 -10.14702292707507
352 8 8 7.121509299631861 16.63963193706624 -10.295175137682895
353 8 8 6.515772011461126 15.668246812443593 -10.69461614518119
354 8 8 5.363234346607847 14.042316959437665 -10.939402827268236
355 8 8 6.535380566920502 13.388630479999858 -11.369689017435238
356 8 8 8.049312710090103 13.338934467417534 -11.017966469524458
357 8 8 8.677930106735007 12.027151193137191 -11.119819265086713
358 8 8 9.340530525603496 12.458242122706476 -9.87150196661851
359 8 8 9.855333121918063 12.256141862776966 -10.903935143497616
360 8 8 9.654250170913281 9.824605635526217 -10.540244161184706
361 8 8 11.029968664945372 10.313090303772716 -11.50019954447164
362 8 8 11.762599382323257 9.50209708305692 -11.766892174776922
363 8 8 10.457205185051768 8.437923309922326 -11.796649865015292
364 8 8 10.049165690949105 7.452060201542729 -12.548739303823428
365 8 8 9.960403704792371 6.383481227197105 -13.439859205959383
366 8 8 8.688941844993431 5.907289674309175 -13.331388217828602
367 8 8 9.075472119125617 4.589915090295942 -13.697143926046552
368 8 8 8.447317153570687 3.513755101720565 -13.962851320903209
369 8 8 7.608605508135222 4.054643563848523 -15.146121237659504
370 8 8 8.612451948044825 4.2982367770608825 -14.721230615928645
371 8 8 9.215022431369157 5.023759578963543 -16.196159253156583
372 8 8 10.718060627436252 3.715546922502675 -16.49396561747783
373 8 8 11.623917927416715 3.8680555118870585 -16.019046898924344
374 8 8 13.337997920521886 3.5366824852299743 -16.019734144928645
375 8 8 11.786148438439495 2.375923469855569 -16.38954704935407
376 8 8 12.22793022508785 2.948949703439186 -18.102473127953274
377 8 8 11.782101668242884 3.980398496049701 -18.00196593582371
378 8 8 12.433589591655117 3.305097211804537 -19.296162186521702
379 8 8 13.242320788186571 2.396929191965359 -19.40401441785482
380 8 7 12.621580255606704 1.6332743286373002 -19.86892044328637
381 8 7 13.551984007996642 1.1969353528831546 -19.068231657494835
382 8 7 13.466637248864807 -0.4672906252479872 -18.744055812780534
383 8 7 13.306521240641501 -0.05151195635758884 -20.032088599519653
384 8 7 14.649906418191282 0.49273195483579574 -20.922106968210784
385 8 7 14.62453424151226 -0.9700326446896067 -21.705971637264764
386 8 7 14.083826977311817 -0.09743481616304578 -22.65000249421865
387 8 7 15.253989418669942 -0.16550122635664252 -22.143602488688057
388 8 7 15.886880466271565 -1.3764861276954636 -22.737754501129366
389 8 7 16.448036091672947 -1.1742454962264444 -21.41742876040201
390 8 7 18.041971727384585 -0.6818131711844975 -21.280922710183447
391 8 7 17.6217835058899 0.7790165812335242 -20.371763609931683
392 8 7 15.861007590594635 -0.001069054267356714 -19.907643252681993
393 9 8 -6.897772446139056 -5.771848765205444 -13.981930872950187
394 9 8 -6.420477104927703 -5.095196919826033 -15.665402106719045
395 9 8 -6.7423088471979 -4.020699337520072 -13.376417807110403
396 9 8 -6.815566562952265 -3.5628350461716103 -14.634853805983509
397 9 8 -6.972065318174773 -2.7320695258650893 -13.211697321810567
398 9 8 -7.809305618132556 -3.200230942882339 -12.552779888943228
399 9 8 -7.950644512367884 -2.2642758069221136 -11.96973043945739
400 9 8 -7.0948469388607025 -1.9054235076991797 -12.721375974449625
401 9 8 -6.089576486050315 -1.2743609017140949 -13.237809482904725
402 9 8 -5.80512959636463 -0.2740242052997288 -13.529398454628252
403 9 8 -5.192496032092713 -1.0307461014962938 -12.580371968006897
404 9 8 -4.766971154630062 0.6919070166435243 -11.387518870713935
405 9 8 -5.012035301578079 0.02090046293297608 -12.52304714030177
406 9 8 -6.365428379635026 0.7291829682466199 -12.14480481863701
407 9 8 -7.507996979343022 0.9540936108434248 -11.411020360465336
408 9 8 -7.452018499846662 1.341114125657945 -9.400617418682296
1010 30 10 -6.6851098313504 1.6919362296174427 -8.804361463313402
410 9 8 -6.034807764515153 0.802169933476202 -9.451459023380597
411 9 8 -4.58554129169908 1.3736917971447205 -8.70352875602117
412 9 8 -4.859746695403522 0.39729981372953366 -8.544037587718922
413 9 8 -3.9243345369399756 0.24667966613489084 -9.012088265469687
414 9 8 -4.785116089187451 0.2335863059380211 -7.445544480665681
415 9 8 -6.123809827443034 -0.6647327854330597 -7.531252246573328
416 9 8 -7.180859495606577 -1.0023171389444572 -7.414740582249772
417 9 8 -6.455318659523193 -0.4176159228830399 -6.386970867010591
418 9 8 -7.848892814961974 -0.3965519506695016 -5.961868859952195
419 9 8 -9.252294272860926 -1.0220379253358816 -6.286769733977573
420 9 8 -10.42756005965781 -1.352714540109578 -5.733317796006581
421 9 8 -10.56229971834336 -0.4446109269856806 -6.3605652199933775
422 9 8 -10.451449371633165 -2.5605492075214773 -6.140491904100949
423 9 8 -11.743149273276254 -3.1869625696825787 -5.195707807411304
424 9 8 -10.860743178932909 -4.021423206394442 -6.385275649797422
425 9 8 -12.086797883300148 -4.5173638683516275 -6.7553956112474305
426 9 8 -12.44197410633146 -3.878810534183336 -7.728122547670034
427 9 8 -12.442862264637622 -5.317564059449845 -7.939956034289571
428 9 8 -13.982410387866185 -6.916396405041059 -7.74347399313701
429 9 7 -13.58349356148337 -5.8457781625999585 -8.410420740265316
430 9 7 -14.714728376326569 -5.332848040344489 -7.906269028883511
431 9 7 -15.804680309321062 -4.713661135144652 -6.131442421976061
432 9 7 -15.068865651821033 -6.433412802418314 -4.9200164285359795
433 9 7 -14.857127181343953 -7.99681011508366 -4.507163297710715
434 9 7 -14.262226821581736 -8.71753427446198 -5.606713423456328
435 9 7 -14.180101930267874 -7.317044889013612 -5.961571783935493
436 9 7 -14.957021546294841 -8.177633101272752 -7.370999018267931
437 9 7 -14.986181078669395 -7.031898234575094 -8.349852280655348
438 9 7 -16.403723301113505 -7.097881661318929 -7.937009312767285
439 9 7 -17.386122136470345 -6.43629969975317 -7.067408026085762
440 9 7 -17.16341927298624 -6.551792367014334 -5.900119701850193
441 9 7 -17.72585919679946 -6.5502675125684995 -4.766399199889115
442 10 8 0.3158777068795264 15.630701948760597 -0.8620359681263442
443 10 8 -1.345918518244571 16.24222963311302 -2.25629578764627
444 10 8 -0.2007778019123761 16.373831886813647 -1.743027235471904
445 10 8 -1.2556659239484136 17.220758677984502 -0.9871695856808873
446 10 8 -2.8673498975115193 16.131504245076435 -0.8139913379147133
447 10 8 -4.007110152361196 15.457232678745806 -0.6810168898712875
448 10 8 -3.4352009051643773 14.427994060047038 0.35503134138245807
449 10 8 -3.405431987749617 13.33063523019968 -1.0247783640416488
450 10 8 -2.1480427663042136 12.81944621911649 -0.19822459482059585
451 10 8 -1.9683676891978823 11.994434588123601 -1.294668078627519
452 10 8 -1.8526138770238403 12.474091860052276 -2.5671363564560843
453 10 8 -3.185755995044243 12.000660343299815 -2.3839857245638125
454 10 8 -3.534859802297657 10.271748154990147 -2.7789774525857838
455 10 8 -2.8757419605957644 9.421845934254295 -2.6083370525085603
456 10 8 -2.5176899486840254 10.751765655778687 -1.8913885135569122
457 10 8 -1.3504137900633861 10.198642143195432 -1.4695981708573016
458 10 8 -1.0897695962627227 9.274823524129646 -3.118890826665574