# Generated from readdy-to-lammps

1005 atoms
710 bonds

10 atom types
1 bond types

-30.0 30.0 xlo xhi
-30.0 30.0 ylo yhi
-30.0 30.0 zlo zhi

Masses

1 1.0
2 1.0
3 1.0
4 1.0
5 1.0
6 1.0
7 1.0
8 1.0
9 1.0
10 1.0

Atoms

1 1 8 -15.798026778859183 -9.414671360082055 -12.3762917197898
2 1 8 -15.196064580912514 -8.552707077594276 -12.474721014431456
3 1 8 -14.48995802457426 -9.255138968197942 -14.089076210062151
4 1 8 -13.104521275170201 -8.591456509697062 -15.083501778134872
5 1 8 -11.907508285628978 -8.914224293123834 -15.150402363581641
6 1 8 -11.10027826105995 -8.033801974341674 -15.191267010577949
7 1 8 -11.731608379241239 -6.39771934255339 -13.872141455976537
8 1 8 -11.189362218872072 -5.386064145773518 -13.745638008153852
9 1 8 -11.354580952217397 -5.538783171729763 -12.11710888257558
10 1 8 -11.596359980917267 -4.792581643029354 -11.194094278171422
11 1 8 -10.87969018331572 -3.6473969686476186 -11.377268058000084
12 1 8 -10.26778560845432 -5.028642748319737 -10.454785539490755
13 1 8 -10.396895241053137 -6.054756362846674 -12.068276895907832
14 1 8 -9.642841490841262 -5.15559834677629 -12.118187577897519
15 1 8 -7.706975599881291 -3.578187370638172 -12.013246308370306
16 1 8 -6.851478417717781 -4.659603127525896 -12.22053621702759
17 1 8 -5.947763476528825 -5.801413694252708 -10.734821233562405
18 1 8 -6.598019904400764 -6.894180671569522 -11.200361635131864
19 1 8 -6.688791344761956 -8.17424635317711 -10.64485676798005
20 1 8 -7.567194937173196 -8.14395262270608 -10.02122958683765
21 1 8 -9.294747618228385 -8.677990132706238 -9.81724805778588
22 1 8 -8.695324404481955 -8.03886606721943 -8.644052465943933
23 1 8 -8.019002296771697 -8.999701375490435 -7.372505587332805
24 1 8 -6.818681744392084 -9.471233789874498 -7.391560041296969
25 1 8 -6.489015488303447 -9.191107721577545 -8.593850020382371
26 1 8 -7.099667989319166 -7.993952845592634 -7.93944205898912
27 1 8 -5.3956675600101525 -7.7459007660713 -7.1581141626698095
28 1 8 -3.8809829837779932 -7.087737070457393 -6.598581662132366
29 1 8 -3.6291627277850256 -7.117389705559666 -7.963524940683149
30 1 8 -4.561724734712243 -7.3330584504722225 -10.271484439634763
31 1 8 -3.8367685392275215 -5.898511568811605 -9.271427931596072
32 1 8 -3.6691892971637836 -5.45819918061287 -10.773721199742003
33 1 8 -2.388686976981952 -6.117043185655329 -10.59791292290105
34 1 8 -1.600235908993292 -6.580776347046855 -9.390052021685042
35 1 8 -0.5867446087870098 -6.686784661612989 -8.728894630467776
36 1 8 0.6546712506001425 -7.557053968692406 -8.42848454869133
37 1 7 0.3807532998945925 -8.413060111016074 -9.944259343123083
38 1 7 -0.46134373370327675 -6.351575341915332 -10.683391957940902
39 1 7 -1.636966466752546 -7.445055512120746 -11.286005054081903
40 1 7 -2.7126604145435724 -8.039916526932616 -9.979540900648049
41 1 7 -3.4909551143955753 -7.697803013949224 -10.709304613357132
42 1 7 -4.246674806395591 -7.534099840777896 -11.76884566458486
43 1 7 -3.7041795440710397 -6.567860830579218 -13.040228181786139
44 1 7 -4.1866351590454824 -6.421876459147761 -14.285275355858447
45 1 7 -3.3861109544103205 -5.321200796016905 -14.23561929517828
46 1 7 -2.157705140148338 -4.597838630746903 -14.52608128657022
47 1 7 -1.114756809782031 -3.3940805047817193 -14.27804851928182
48 1 7 -1.5876335919112043 -1.9272427658867735 -14.446106774242699
49 1 7 -1.6650022355552907 -1.6533293695532625 -13.464621086362797
50 2 8 0.011779140767801163 -2.240756691532117 -2.462901102497754
51 2 8 1.2810840427906849 -1.2208524124929867 -1.4596590012793154
52 2 8 1.5709431247188288 -2.3722323833108914 -0.7911692989417165
53 2 8 2.088560212001057 -3.3267101252193783 -0.6649339574344704
54 2 8 1.1188332567447956 -4.840621864396147 -1.3424239332699635
55 2 8 1.196861660193648 -4.991078680388394 0.2130030087164459
56 2 8 1.4491403297067715 -5.924756585618459 1.2081354456940234
57 2 8 0.2653688393112491 -6.562180505670394 0.4977360814015069
58 2 8 0.6853814883631814 -6.890261459728797 2.497561869580425
59 2 8 0.5514559049201088 -5.3410689613028 3.8607052172771352
60 2 8 -0.6583742569546935 -5.403739346925976 3.7021126270427778
61 2 8 -1.1348326929113917 -4.488697919618741 4.18953219162374
62 2 8 -0.7494921067205043 -3.4158756581206786 4.946971728526373
1007 42 4 -2.4888369341829333 -5.433849875241207 4.8826321060956825
64 26 8 -0.5369408935199554 -5.020017370329895 2.404232976161584
65 26 8 -1.7096371322683164 -5.254697563899487 2.3879995054339993
66 26 8 -1.6544368081444667 -5.377065307765782 3.655927376412913
67 26 8 -2.7797558622547953 -5.328275960423388 3.745143233160751
68 26 8 -1.9554769016822977 -4.042442092609528 3.2886076971784455
69 26 8 -3.4917463214930198 -3.8140241900996994 4.112948853025491
70 26 8 -3.013431630938559 -2.562450076890965 4.813786681455232
1036 42 10 -1.20954146706551 -2.026919867018446 4.453041289081188
72 26 8 -1.2749436533004606 -0.03094087631179055 4.820093370621701
1009 42 10 -1.9252313080566614 -0.6562863065806177 4.051539145720908
74 26 8 -1.8467542619292243 -1.5779199597241371 3.233327376535767
75 26 8 -2.801950049338573 -0.5698480939332345 3.067705715779296
76 26 8 -3.3499408311981265 0.7488248455029419 2.235351554594337
77 26 8 -4.69238580872389 1.9391170382937761 2.110058459840257
78 26 8 -5.033638399524718 1.5755545484621285 3.0938296112338306
79 26 8 -4.802073341209778 0.5655151334029964 3.1391685249119523
1017 42 10 -5.477430122412646 1.6151718626664935 4.44973473286384
81 26 8 -3.9525065316546892 1.6698054012804249 3.458652683004743
82 26 8 -3.2615858047160025 3.3807657710383876 2.7255464936608953
83 26 8 -1.9182467342103495 3.974832479143891 2.2042852209098087
84 26 8 -1.8027655665353934 2.369929101343882 1.7550917671761186
85 26 8 -2.249449376429506 2.9673076056215746 3.753375778059361
86 26 7 -0.9647920586859038 1.8072660088396684 3.2652529199607074
87 26 7 -1.0257040864381992 0.8967564095626798 2.6750425652834324
88 26 7 -0.7122150040488495 -0.8906465745408108 1.6779717226582629
89 26 7 0.6630909194701392 -1.2369071896224848 2.183633031180835
90 26 7 1.6424287045797044 -1.5046863404868012 1.5245175172729997
91 26 7 0.5262674199577044 -0.750688086262918 0.7936099163412613
92 26 7 1.2187589846527693 0.19855642086150885 -0.12488144953767925
93 26 7 0.020970662491439855 0.8081369001696063 0.6444328129203757
94 26 7 -1.1855476493673818 0.16353818054151395 1.1942335981170398
95 26 7 -1.2846996366206314 -1.0503689088407573 -0.41108480287707105
96 26 7 -1.823937626566227 -1.0142375529892613 -1.5013156960147735
97 26 7 -1.751949798726716 -2.524671737004564 -1.5998643470635465
98 26 7 -0.47416068811441703 -2.9143503344144235 -0.42533593387226243
99 3 8 0.21415521753060662 -7.733429164472909 -0.5657002424650205
100 3 8 -1.1985699780989547 -8.168667833572753 0.341141222316082
101 3 8 -1.422984401924808 -9.193075502113706 1.572107921853638
102 3 8 -1.3868949810460678 -8.016140783723397 1.810287248591265
103 3 8 -2.512852528094573 -7.372420194931101 2.008551192290011
104 3 8 -2.35356289582177 -5.656933940055293 0.8974055525338748
105 3 8 -2.310258278247169 -6.488931547416278 -0.03670055918449089
106 3 8 -2.7469566585581897 -7.664773816074135 -0.7156351589144804
107 3 8 -2.5661042079976433 -7.579657034435227 -1.7557142311132967
108 3 8 -4.112874439048151 -8.514171064401038 -1.8304768190167653
109 3 8 -4.3677199219714 -9.900169389232586 -2.0600169186338735
110 3 8 -5.419647997786525 -8.622654650626332 -1.167657954797281
111 3 8 -4.843246882880151 -10.200238446859919 -0.810329343236005
112 3 8 -5.839628924794897 -9.136128679068387 0.2737439911394551
113 3 8 -5.63636874243008 -10.332853219970833 0.11884313769865262
1024 42 10 -4.6268031805549406 -11.737986152878085 -0.09394452689406733
115 3 8 -4.754270546161677 -12.213290233026418 1.9408310376231424
116 3 8 -4.28468648166917 -11.229958759303479 0.9181056459313802
117 3 8 -3.319119957949653 -10.157439683467173 0.8129546920279356
118 3 8 -4.124237273862131 -9.019238270063786 1.1385361090042985
119 3 8 -4.446528121238344 -8.98787530081666 2.5816172490538416
120 3 8 -4.546671441986363 -8.496399176798914 3.6392905226220376
121 3 8 -4.584950116331065 -7.227866040596585 2.9878028443021223
122 3 8 -4.686796486700693 -5.78217845201807 3.655301976944797
123 3 8 -4.000791630867604 -7.25076058847165 4.605137166798447
124 3 8 -2.886121158287832 -8.20242553448357 5.842579348826199
125 3 8 -2.7572713766398804 -7.578187949795684 4.6477106510386585
126 3 8 -2.5111306211334616 -8.401327877101336 3.9900214292487513
127 3 8 -2.0960166677772194 -9.336535822139385 2.7591329840369645
128 3 8 -2.9100330845810136 -9.911896728720244 3.9818689271385126
129 3 8 -3.0413503141020737 -11.73271490070004 3.475745350250356
130 3 8 -4.397793676639662 -12.507710727291302 3.5509592555950897
131 3 8 -5.953541731133449 -13.185820906079572 3.8643816738280905
132 3 8 -6.936536117393307 -13.630616411162732 3.9699878708092173
133 3 8 -7.452628955094765 -14.127369252534915 2.764787390173009
134 3 8 -6.41855461251893 -13.878492946572479 2.169838803404483
1025 42 7 -4.024813338916875 -14.043475346747211 0.973504962849067
136 41 7 -5.238818521917117 -15.9144919171156 1.48891528005386
137 41 7 -4.938434790690351 -16.29921282886181 0.26369713905564673
138 41 7 -6.27626583124184 -17.284236348813263 -1.0194213627219544
139 41 7 -5.151055206436768 -17.309760311604308 -0.7004679696810173
140 41 7 -3.308813251985678 -16.5232539520601 0.05623499510192943
141 41 7 -3.3013320435434097 -15.2174916093282 -0.43200212434655827
142 41 7 -1.8852801662921268 -14.770810717751191 0.351685495491692
143 41 7 -2.2482715871257097 -15.681240720511653 1.3559650112497503
144 41 7 -2.309239501486978 -14.795879252429923 2.694837172006367
145 41 7 -3.3171264845467423 -13.285523795140724 2.7433252127350714
146 41 7 -4.301210006826829 -14.03924668514272 4.1594629595127
147 41 7 -4.5836679636782405 -11.367382842857472 3.610790260264012
148 4 8 0.047582376521306244 12.664899009693565 16.830539982195127
149 4 8 -0.8670587840256184 11.51406805717857 16.24902169198751
150 4 8 -0.9246205372212221 11.888400005380035 17.826904301639168
151 4 8 -1.4026054452389456 10.999104782137575 18.478609615517225
152 4 8 -0.6479053542243098 10.716995291203244 17.195133256668157
153 4 8 -1.9141915402619982 10.48344258410353 16.196899048439473
154 4 8 -2.873834276035333 10.78023003796931 16.814549525992806
155 4 8 -3.0542570188596163 9.465397372351958 17.295977210382453
156 4 8 -3.853762248272413 8.274485798262544 17.82581815553784
157 4 8 -5.540717442727985 7.767971834377147 18.24604885889591
158 4 8 -4.246923304270878 7.323324618685823 17.206584644241694
159 4 8 -3.4889286560327997 6.495493512750553 17.56264308028146
160 4 8 -2.0936197742184874 6.305160376545929 18.768530097423206
161 4 8 -1.7788147451616994 5.383750666853352 19.71727985924209
162 4 8 -2.9833986263191257 5.821390164747384 20.834671612964232
163 4 8 -3.244243681008445 5.170263157874889 21.480074012838482
164 4 8 -4.476439105089712 5.174608543040484 22.00801691248791
165 4 8 -4.951519554648857 6.388455630534185 21.746199724086598
1031 42 10 -5.166421258628324 7.483804563920748 21.57904682721057
167 4 8 -4.178788583212303 7.5233360972227805 22.91877081454701
168 4 8 -5.324500620134913 8.264467681132409 22.98388576953371
169 4 8 -5.578154032431733 7.1055130301571525 23.6667449526067
170 4 8 -5.441743810481564 6.23129679305429 24.84500898732827
171 4 8 -4.531744317561688 4.804486467306915 24.983561384653896
172 4 8 -3.730303262398408 3.620007415196149 24.582322008378554
173 4 8 -2.7851325662790147 2.6312596394651635 24.682262187380605
174 4 8 -3.104506544084962 1.4724378858091771 25.57681184473743
175 4 8 -2.325021821556321 1.2076410915352045 24.3745650906313
176 4 8 -2.6869264226515766 -1.0529753325433278 24.27156744810747
177 4 8 -3.0351678607058252 -0.8709526060724696 25.47037483971754
178 4 8 -3.464475405121783 -0.7295518986771824 26.42113955273961
179 4 8 -4.211119075611708 0.26388150707929636 26.890354748531035
180 4 8 -4.888877027940084 -0.9447349855327203 26.99827988824281
181 4 8 -3.9834454122096448 -0.974011135662063 28.048566514186827
182 4 8 -3.0908826883598985 -1.2918334671140876 28.55095141735593
183 4 8 -1.45655525239582 0.08032408395640263 28.261974249905926
184 4 7 -1.0430211073819287 -0.5214433007745272 27.314148013883695
1028 42 9 0.39165516195695954 -0.5355931175799332 28.532520760346447
1023 42 9 0.4005795003600202 -1.707755589408698 27.181014528311845
187 4 7 -0.8263474321465216 -1.5656705547500385 26.11296439944873
188 4 7 -0.6775497017620828 -2.7157967692443017 26.319865217303093
189 4 7 -1.1403553370786124 -2.9077591022719735 23.851473186391175
190 4 7 -1.099524507633463 -1.6512257197969276 23.612801782954648
191 4 7 -2.245268535679497 -2.2562739064868675 22.165660030937183
192 4 7 -2.1809089827913986 -3.9145674368722827 22.54272764958737
193 4 7 -1.6083855607233442 -5.116497348687856 22.061432958389005
194 4 7 -0.49658680242108355 -5.313959073622357 23.395300407226586
195 4 7 -1.8885817161768743 -6.227321903670521 23.02895737870758
196 4 7 -1.2033783221789247 -7.739196169977079 22.178670621523505
197 5 8 1.309898521108799 -4.030273579137965 12.742912951106744
198 5 8 0.20624112933149555 -5.656916053626232 13.094959253994222
199 5 8 -0.01352033331277213 -5.840719463815936 14.972392590715021
200 5 8 0.6065347866286434 -4.267497348617909 14.834068490901576
201 5 8 0.9307859880805627 -3.203293893853352 14.342022176309655
202 5 8 1.6948935677477242 -3.898154100696675 15.252823218106105
203 5 8 3.0224106677229203 -4.228986789958528 15.037998611008584
204 5 8 2.532369964704525 -4.022333548450972 15.954253563781393
205 5 8 2.6359921515140368 -2.1266726389663924 16.835423241029428
206 5 8 3.0664132391408345 -1.1900081728445544 16.46347688387453
207 5 8 4.543731731243995 -1.5591727070257042 16.880465400054337
208 5 8 5.093486156198571 -2.4806869039419883 17.123166972951196
209 5 8 4.763195666372482 -2.448665377611118 15.345204049644842
210 5 8 5.710359659552622 -2.782290174640858 16.196293742903393
211 5 8 5.966297331748582 -1.287877590875188 15.120740330262073
212 5 8 6.905628392605874 -1.3538625289744621 14.281977330164699
213 5 8 6.115997534277117 -1.025047825048282 13.107902897889192
214 5 8 5.699975330568837 0.1343269092732221 12.652748726543779
215 5 8 7.038959559376819 0.37406601493951525 11.68070683408023
1019 42 10 7.572303644939318 2.013699067625329 11.832157480044387
217 5 8 6.387776365045897 1.8474264449195086 11.744743425208933
218 5 8 6.545375552774234 1.9010296420259731 10.29217284358799
219 5 8 6.905702363454907 2.8697713024471616 9.171044469175756
220 5 8 7.511542668371982 1.5776889464649164 9.126181965249545
221 5 8 8.786360057792102 -0.14338593354250834 8.09153065695336
222 5 8 8.041802583122204 -0.8170528976839999 8.846687792783785
223 5 8 6.900289578276805 -0.17935480637006626 8.318736362049522
224 5 8 6.464928211014753 0.4027061143365234 7.109803460994358
225 5 8 7.836910597275158 1.4293806660403858 6.705904432620021
226 5 8 7.5233119084776385 0.8994551454287262 5.38766723128588
227 5 8 7.252712897160381 1.7492560684578342 4.3824613517170405
228 5 8 8.358282333881839 2.5868939728733182 4.095277728959588
229 5 8 8.392778880633802 0.9892728201663263 4.147176195607045
230 5 8 8.60741670178353 -0.06499678054506206 4.034277951691278
231 5 8 7.789603195279822 -0.706311550338919 3.6424645125464825
232 5 8 8.300736392225383 -1.5633088760122953 2.6281069409168
233 5 7 9.192174431796824 -1.6943577602132436 3.4368299620220433
234 5 7 9.87563803956004 -1.7824652281655435 2.3684653852251256
235 5 7 8.40504070737803 -3.225041286888539 1.4531483192414603
236 5 7 7.560073746096275 -4.558792482993973 0.08352104039201842
237 5 7 8.033950496244787 -4.313788873478444 1.0846025507042285
238 5 7 7.274834690329891 -4.9174411022480164 1.6846943345893384
239 5 7 6.957696341454639 -3.3584851400631313 1.8894228598265557
240 5 7 4.732282207264832 -3.9639268786581576 1.111894187917298
241 5 7 5.761702351866549 -3.4179262324366366 1.3951163990386233
242 5 7 5.862612368904164 -2.6649528867322085 3.262774964204551
243 5 7 6.503662877680484 -1.9523007877481882 3.903966410646218
244 5 7 7.282552461537301 -1.3266574934182345 4.654559856959375
245 5 7 5.508773581301174 -0.8157527329276493 4.967344808325961
246 6 8 -0.5072158021618544 1.9928844941964814 4.897697033975692
247 6 8 -1.168541403737909 3.0029983455354614 4.156893818240989
248 6 8 -2.7236148079973375 3.7527633723736407 4.98440604059309
249 6 8 -3.1764918722902085 3.4533501060702876 4.0593285890466495
250 6 8 -2.7224318995006827 4.9048601357561825 3.367011124837358
251 6 8 -1.3901879603556426 4.803813038418062 3.802841330514921
252 6 8 -0.09760494055573832 3.6616234103975662 4.013984265115159
253 6 8 -0.09539711473914564 4.215989968193952 5.1024814666720495
254 6 8 -0.6516471414288952 3.689241799188614 6.143501964395097
255 6 8 -2.23866810331417 3.561277367888286 6.254348622648592
256 6 8 -3.308733403277089 3.984287436813517 7.267517976987785
257 6 8 -3.46729418710945 4.978926861889801 8.21567564776519
258 6 8 -2.789738555221144 6.095161578645613 8.134583231808037
259 6 8 -4.575610726072643 6.857537873308715 8.353358819967259
260 6 8 -5.011244457101476 6.532795250735803 9.626464653040577
261 6 8 -3.709297041660427 5.90235381016605 9.14752129603115
262 6 8 -3.522093032241765 4.6910749427271075 10.032449617496715
263 6 8 -2.997009542464461 4.792212554149387 11.415709593842568
264 6 8 -3.3334491626982685 3.297896746486911 10.208260661105953
265 6 8 -3.377788774081258 2.135166091695536 9.60858342118286
266 6 8 -1.7474010543822354 2.3540186658785047 10.255663580344768
267 6 8 -2.0588911715211102 1.064539047826611 9.84797347857105
268 6 8 -2.473915631685991 1.2021844319267965 11.004456154134646
1034 42 10 -4.281226896568563 -0.27635485311236585 10.525260961064248
270 6 8 -3.7948255177269914 -0.6109969989722613 12.064022522767221
271 6 8 -2.0082160865427485 -1.6710802394888127 12.770016990306495
272 6 8 -3.135198812722334 -3.0767126980026007 12.194443471241375
273 6 8 -4.637391435136555 -3.5412101140576113 12.642657898233322
274 6 8 -4.071155880840449 -3.320617356805854 11.198455033861244
275 6 8 -3.2909133753841 -3.510173539970456 10.440459093482358
276 6 8 -3.4163765030622137 -3.5603197580781614 9.312815377287272
1033 42 10 -2.6720612910318704 -2.3772383215502204 9.001091147860349
1012 42 10 -3.4043914817035734 -2.1205546034845755 7.659552336886657
1026 42 10 -4.541276436940461 -1.6859121169465285 7.600280391206019
280 6 8 -5.292861455281389 -0.772312481039936 7.1181177302597645
281 6 8 -5.448440430583382 -2.1632247432776883 7.648737884399654
282 6 7 -4.663612416577197 -3.2637754874940974 7.943285152203431
283 6 7 -3.625456864209093 -3.9863818380909133 6.764414200795399
284 6 7 -5.191967953537821 -4.161957089268512 7.226653302572955
285 6 7 -6.346550798886639 -3.174094644153933 6.657100517757114
286 6 7 -6.912524824246974 -4.235688287312332 7.1537387903471545
287 6 7 -5.48559127508672 -5.378635733021929 6.468889094272244
288 6 7 -6.123353847455023 -5.351391008577392 5.073132901450022
289 6 7 -7.340603998355148 -6.119275775442097 5.312120853075829
290 6 7 -9.395485101223173 -7.27209355121145 5.585650939346383
291 6 7 -8.833322605077292 -5.663724465007966 4.389369252884054
292 6 7 -8.98750999004391 -4.97472222585157 6.351458820994344
293 6 7 -8.909647397219665 -3.6485634493695582 5.85191694511962
294 6 7 -8.95284128611491 -3.3201159682604415 4.719040609238301
295 7 8 2.661476246720933 13.175375771617627 6.87056845282548
296 7 8 4.5646084769523725 13.617534192553878 7.673762118408098
297 7 8 3.324965024510733 13.544963614935957 8.528676145182255
298 7 8 2.4357320982131787 12.727332585493132 9.369191969254832
299 7 8 2.0795813299563926 12.75805883289886 7.877148127130147
300 7 8 1.1624647001538804 13.20968127204832 7.570850392163405
301 7 8 1.1411965441380465 13.81756154994328 8.938280025535082
302 7 8 1.271170901269313 14.606263800831506 9.90504677012852
303 7 8 2.2700445371054796 13.869564332782408 10.188509673391044
304 7 8 1.70192880344981 13.603109763916516 11.722016326939354
305 7 8 1.2168828587249443 12.917148311483892 9.817513515135508
306 7 8 0.05674987440569007 12.590968313336603 10.394265830113413
307 7 8 1.7636107562586119 11.797759885701286 11.7223497287468
308 7 8 2.748619668482937 10.549232103776774 10.959849326681319
309 7 8 4.191190170595061 9.674654896030036 10.849707571424448
310 7 8 5.191340464170948 10.624621544911049 10.231154933738619
311 7 8 4.147724064547792 10.008105006457976 9.418979342703958
1011 42 10 4.346181754708984 10.513875182057259 7.673892742087639
313 7 8 4.308191093139765 8.826618564852149 7.623095640509997
314 7 8 3.6870890964355167 7.3629372887969815 7.809135427660923
315 7 8 3.2405381852927193 7.459295307387086 8.759584098856406
316 7 8 3.525120531045131 6.801725024239408 9.807094631547177
317 7 8 2.2941824271593947 5.7925971750729595 8.692669139722868
318 7 8 2.420412324111649 3.4701714468508653 8.922430474721844
319 7 8 2.1319496132658067 2.4556190277972925 7.337591048227811
320 7 8 1.5002924930385775 2.608683460361516 6.5070996004695845
321 7 8 2.5909621194839096 2.4228068211733302 5.8898306246685985
322 7 8 1.6376243443713576 2.0461406918370306 5.5856428719483135
323 7 8 0.6591616520091484 2.2692678360378142 7.523586322857376
324 7 8 0.34941743638227923 3.2149594593287163 7.306384557861397
325 7 8 1.4107643906564724 3.5092497283548303 7.509335796695556
326 7 8 0.9898633549973327 3.5465165677320707 8.862689198632399
327 7 8 -0.2791101555159405 4.791908006227639 9.822157394906602
328 7 8 -1.6306883402465082 4.616616362322054 9.34077404986973
329 7 8 -1.4561397169411336 3.6328824596815785 9.821474781986234
330 7 8 -0.078536788727253 3.438650286450251 9.973164306078978
331 7 7 0.5450234021567223 1.7606515695296818 9.216552020977526
332 7 7 -0.1478952464296465 1.0568927311657896 10.717297667973497
333 7 7 -1.130747072967942 0.9805700400340512 11.549486513423098
334 7 7 -0.6171559010716411 1.2626309645941929 13.279605823253767
335 7 7 -0.3161781468916258 2.2586501263615584 13.634619518664952
336 7 7 1.6088484929301567 1.8266660358004891 13.260630059361423
337 7 7 1.8009825600304785 3.098073975115935 14.372511571719235
338 7 7 0.6376576832681344 4.424512470634897 13.549623920167944
339 7 7 0.2931890917950915 5.295939513918491 14.271191436302145
340 7 7 1.3126924975925478 5.570587325287724 14.705940123362485
341 7 7 1.5590452178887766 4.753783298379871 16.207036448407646
342 7 7 1.0089924812550746 6.155630709563692 16.309116907591175
343 7 7 2.748633068432298 5.248666647743578 16.94034371307846
344 8 8 6.331274216558181 18.693730286232228 -8.863565956287308
345 8 8 5.9246879308090445 17.804178803945163 -8.008870274822987
346 8 8 4.879998786539636 16.839680056019652 -8.47546604705244
347 8 8 5.701877771323869 16.068253216383688 -9.584693364936955
348 8 8 6.599051419516035 17.425690885444258 -8.821677250014336
349 8 8 7.693034676653995 16.963599333424522 -9.157512329715187
350 8 8 6.493440533782583 15.911483682558755 -8.723610616770525
351 8 8 6.830303663194674 15.853174627523579 -10.28399091871164
352 8 8 5.836243356394304 16.914246441221557 -10.544388092108015
353 8 8 6.029718609908053 15.976499599588525 -11.282903891746535
354 8 8 6.603604188138026 15.098866699139657 -11.248610651178874
355 8 8 7.779923502964034 14.474921628124266 -11.198210074126537
356 8 8 7.568501332235794 14.304977202812049 -12.239355295741868
357 8 8 9.0129039641967 13.896303253978486 -11.818840101150133
358 8 8 9.507523699840844 13.397027979331083 -10.90006884259258
359 8 8 9.086523538666771 11.946229146749793 -11.173178963916493
360 8 8 10.090240602489295 10.975196778891815 -11.218086071842668
361 8 8 11.286929869508478 9.933595116052246 -11.188362797227626
362 8 8 11.68600531116257 8.811279473370181 -11.273302936019986
363 8 8 11.808105266295604 7.850166302326342 -11.933056926097839
364 8 8 11.99557321803626 6.825886459386484 -13.647489524517738
365 8 8 11.913921205732773 5.920256092525738 -12.875676932401518
366 8 8 9.755984673189644 4.879226256065603 -12.538802787549363
367 8 8 8.585346100676396 4.225983102494086 -14.553752723952558
368 8 8 9.471669325256025 3.5627845025467906 -14.384337681841231
369 8 8 7.335846570976209 3.393589099319702 -14.279138207648067
370 8 8 8.216249451972008 4.679538230034629 -15.613934286624406
371 8 8 8.873756024607951 5.597750985895454 -17.074507470734034
1035 42 10 10.554087829597002 4.756442063641507 -17.124639298888678
373 8 8 11.530476726385366 4.589639956247265 -16.178171847284034
374 8 8 12.937521730971106 4.161729980806036 -16.646640820587425
375 8 8 12.456045205898194 2.4877556605994773 -16.264891526347146
376 8 8 12.305677764906727 2.9533724442158666 -17.716398120544902
377 8 8 11.40486815988896 3.6700327864776994 -18.74010119079198
378 8 8 11.884761377820457 1.8313571445293635 -18.53298356286372
379 8 8 12.936855561060236 2.251867375485316 -19.122082920428205
380 8 7 13.15486899708031 1.8861909897339197 -18.267125159104044
381 8 7 14.035013771805993 1.139753837905625 -17.172196572605365
382 8 7 12.906178071081131 0.7332833891309225 -18.2304587114814
383 8 7 13.328318740672579 -1.0624449048117106 -18.723443583421655
384 8 7 13.944071739162085 -2.361186364131852 -19.658642440305883
385 8 7 13.823252627234139 -0.7848749132956002 -20.849418135979494
386 8 7 14.213176398032246 -0.6848300448375659 -23.0408678127174
387 8 7 14.807899641659612 0.8239116429415222 -22.621050630151476
388 8 7 16.423818753301525 -0.40439455859667756 -21.8768858260248
389 8 7 17.953409761405567 -1.6183687122823025 -20.81028209476537
390 8 7 18.500283617186422 -0.4451121895316976 -20.948134401307275
391 8 7 18.299402099347393 0.3579502686474097 -21.60175453325526
392 8 7 17.844238631995292 1.1107394229035803 -20.323908860869864
393 9 8 -4.208847177095399 -3.972424041748416 -15.642024202745242
394 9 8 -5.302853261712882 -4.768996431578518 -15.044015075069119
395 9 8 -6.566597033983914 -4.265173877957942 -13.944940720194417
396 9 8 -5.980146517576946 -3.356062466845246 -14.900730377489047
397 9 8 -6.845409323681102 -2.8778627085080957 -13.750523772588519
398 9 8 -8.743361871340904 -2.710865705553036 -13.167753432365197
399 9 8 -8.68131854306638 -1.4423590700864557 -12.378388978933708
400 9 8 -7.828469715023817 -2.0095731702748356 -12.846308063650529
401 9 8 -7.501840513207271 -1.050713176051831 -12.314838910399878
402 9 8 -6.566786551989559 -0.4308034193265584 -13.071786859205856
403 9 8 -5.361213825813398 0.333698042650329 -13.634085817347412
404 9 8 -5.041617167607273 -0.36421823566871486 -12.685211295104553
405 9 8 -5.221431048139184 1.3105133228300159 -10.793927636333915
406 9 8 -6.386420872574742 1.4968639127706769 -9.826725947467894
407 9 8 -6.530836771782278 2.878184338396688 -10.138528716978074
408 9 8 -6.887241214232521 2.212502506264852 -8.87186970231751
1010 42 4 -5.440423509222405 1.1840144038351592 -9.012178486272813
1022 42 10 -7.00414764691811 1.177446330776759 -8.632137322088239
1016 42 8 -5.44011084712327 1.9772856661420357 -7.1745363593627225
1029 42 10 -4.214839747684245 0.10125681188200243 -6.778940374221358
413 30 8 -3.9227485699678173 -1.346016514399451 -7.672248400674975
414 30 8 -5.6199095408800295 -1.455764610588633 -7.646180478136304
415 30 8 -6.4827337598609684 -0.30677397510895554 -7.2762109498206895
416 30 8 -8.130151898858182 -1.0301628319227372 -6.85247746406122
1021 42 8 -6.213902360952743 1.278354434102933 -4.9578373376322
418 32 8 -7.2162647512019715 0.3812782957808169 -6.269265163761222
419 32 8 -8.547152228198897 -0.0947022742290259 -5.801624002116141
420 32 8 -9.570762483156493 -1.3244671514286452 -5.886806660322711
421 32 8 -11.115213305977797 -1.2413000631233841 -5.442739051898784
422 32 8 -11.8432071224205 -2.0671034249908202 -4.566911672537993
423 32 8 -11.525293801220343 -3.0123328953276913 -5.685953696836492
424 32 8 -11.554875315474975 -3.7909485390240394 -7.455867425371337
425 32 8 -12.152190484526294 -4.546724179947143 -8.194009761344956
426 32 8 -10.714242715849261 -5.519232245442687 -7.070723459116055
427 32 8 -12.503216284666932 -5.505426223140892 -6.482134327012476
428 32 8 -12.853266817075058 -4.209404977330855 -7.3760160160987365
429 32 7 -13.444141752711202 -5.369743804682521 -8.961808921128018
430 32 7 -13.12914797384209 -3.600609728305701 -8.930362593970285
431 32 7 -13.908500723954113 -4.497798858752109 -7.5936498637555925
432 32 7 -14.085413948324648 -5.044796674807428 -6.2729299765235496
433 32 7 -14.262427902704006 -7.023942848187495 -5.54343855590154
434 32 7 -14.31652119738267 -8.097698124356912 -6.073477371115873
435 32 7 -13.413781405048487 -6.84958166021284 -6.816337894056687
436 32 7 -14.314378336929002 -6.995507585523335 -8.202441410338878
437 32 7 -15.713774447763322 -7.649929198096281 -7.2629249626425825
438 32 7 -16.27700498914947 -9.990188937732183 -6.994688090703022
439 32 7 -16.48546200520096 -9.0900881422507 -6.638624553478997
440 32 7 -16.724758202209813 -7.574071659225251 -6.244206841467123
441 32 7 -15.22938279146553 -9.472164891500096 -6.182521339990262
442 10 8 -0.603192121818008 15.83976176786422 -0.5593211176549219
443 10 8 -0.8410451971767053 15.447288841440033 -1.5859593882017313
444 10 8 -0.19613113964377754 16.283796291478353 -1.6893463492104055
445 10 8 -1.7579647428810534 16.315559164728604 -0.8412633700747385
446 10 8 -2.0741925703201485 14.914935408210384 0.1884960888247887
447 10 8 -2.0842578682685153 14.282311827704259 -0.923881152804626
448 10 8 -3.2690742395379973 15.465617250456841 -1.1865750713891383
449 10 8 -4.122055318841606 14.260458280994175 -1.2956816222422993
450 10 8 -3.124621123997082 13.746214913467384 -1.270082914629949
451 10 8 -2.9409704355695014 13.032742092044815 -2.21174236692691
452 10 8 -2.0224534950489783 12.108362242481636 -2.5525201412215366
453 10 8 -3.8343241426088674 11.06229720305667 -2.8110126108287963
454 10 8 -3.7536007860180156 10.37968562178105 -1.6997431198693957
455 10 8 -2.595887430767786 9.70781365519895 0.08914864820334932
1015 42 5 -2.662225279902784 8.847037714294894 -0.7961609665259388
457 35 8 -3.363236937869685 9.171675911871732 -2.517205823638404