# Generated from readdy-to-lammps

1005 atoms
710 bonds

10 atom types
1 bond types

-30.0 30.0 xlo xhi
-30.0 30.0 ylo yhi
-30.0 30.0 zlo zhi

Masses

1 1.0
2 1.0
3 1.0
4 1.0
5 1.0
6 1.0
7 1.0
8 1.0
9 1.0
10 1.0

Atoms

1 1 8 -15.958797453181527 -9.264317451192523 -12.286699212967655
2 1 8 -15.087058178235363 -8.435623291640832 -12.620071244550534
3 1 8 -14.588698775687815 -9.201868363714476 -13.614194281598444
4 1 8 -13.002869940323505 -9.042520326275477 -15.166438785847289
5 1 8 -11.654290910365061 -9.3537046539538 -14.611073435356003
6 1 8 -11.296358403800724 -8.26076942921186 -14.762383514692258
7 1 8 -11.249607091464878 -6.916654071241257 -13.894358981849868
8 1 8 -11.77656187902573 -5.855961104827959 -13.893680023748411
9 1 8 -11.454407632286358 -4.830205669160338 -12.2127146401164
10 1 8 -11.646590214748539 -4.5749040479534635 -11.15145565822438
11 1 8 -10.750605199839663 -3.2261518830988565 -11.513122347831624
12 1 8 -10.158252396247757 -4.803470839195203 -10.94901543123662
13 1 8 -9.715406921194099 -6.239703767109588 -11.947881148374243
14 1 8 -8.79115843816688 -5.1549591153956245 -11.498150473744895
15 1 8 -7.533539078226927 -3.545609743264003 -11.981007043130772
16 1 8 -6.68813485310816 -5.024729421298832 -12.168869055864745
17 1 8 -5.744901450566798 -5.71073594270489 -11.017649706185756
18 1 8 -6.907742020605495 -6.5850500677544215 -11.51974564547044
19 1 8 -6.698695583653905 -7.964156431759795 -10.930088882364698
20 1 8 -8.166029875008434 -8.34504243024577 -10.253566913630955
21 1 8 -9.23041519717869 -8.462362089631771 -10.164562604794968
22 1 8 -9.050564094239832 -8.236930778627649 -8.201757052354276
23 1 8 -7.805914744123638 -8.728040109573406 -7.48912960856044
24 1 8 -7.420167854555128 -9.761732079221368 -7.47038822130442
25 1 8 -6.141736889571441 -9.117719187980091 -8.50301131318841
26 1 8 -6.798312963961932 -7.607066065592879 -7.734433176735755
27 1 8 -5.300828936257315 -8.30642442643349 -7.040087261719875
28 1 8 -4.439150591156642 -7.292170633424565 -6.451708028786279
29 1 8 -3.8748544293869998 -6.972167637474358 -7.944109227404074
30 1 8 -4.5515972389948045 -7.068853905841189 -9.419803622539748
31 1 8 -4.154193017738027 -6.01854786092792 -9.30113169349438
32 1 8 -3.4205426925151263 -5.694664117956934 -10.892038676829072
33 1 8 -2.6152136630565215 -6.336075193348243 -10.121877083513672
34 1 8 -1.8840730382936413 -7.068620126774401 -8.874030168077079
35 1 8 -0.8447860765797067 -6.88966715574977 -8.73526388980068
36 1 8 0.34012610537681814 -7.107987891513118 -8.632577695725294
37 1 7 0.43084322183505175 -7.43881208634923 -9.975268594718857
38 1 7 -0.24291933737472696 -6.2096244270736 -10.602590035114659
39 1 7 -1.5618670455157566 -7.258654096688198 -11.41730575100109
40 1 7 -2.3784241780002606 -7.5139917754755 -10.089308763896929
41 1 7 -3.4196692570474916 -7.2862877591366075 -10.046423377024169
42 1 7 -4.074137425139754 -6.982642763134453 -11.514733632533796
43 1 7 -3.208619730065253 -6.746773377843751 -13.002073798977193
44 1 7 -4.246585158300335 -6.8281599018052415 -14.287263227081846
45 1 7 -3.5681186372142055 -5.826678687199939 -14.162418100155001
46 1 7 -2.4332984294163906 -5.044994440081673 -14.458410155255828
47 1 7 -1.1954371319194033 -3.223398939218236 -14.90864358940888
48 1 7 -1.5807400964975198 -2.2234892113823337 -15.0692831351932
49 1 7 -1.5282234435748991 -1.6977661750331574 -13.411908096526517
50 2 8 0.4008221503504879 -1.71221037662648 -2.490965379182641
51 2 8 1.3327475809527616 -1.2301031210539433 -1.445211742294232
52 2 8 1.1022975174193006 -2.5754477715337645 -0.9313353875473578
53 2 8 2.3446918781502997 -3.0911056583608065 -0.3559437795122928
54 2 8 1.6082379696114102 -4.580591143005034 -0.9155766160188803
55 2 8 1.120319481207857 -4.947054148370334 0.13806994755505975
56 2 8 1.587412407958907 -5.812792577866576 0.7691123276584719
57 2 8 0.6477046035415537 -6.517881413047284 0.3121410960049073
58 2 8 0.8363277560379248 -6.858737027996495 2.3627607190146427
59 2 8 1.044882871501231 -5.558161606811101 3.834993511998721
60 2 8 -0.3565727259406675 -5.367901981422763 3.7773136507369194
61 2 8 -1.991347320983149 -3.6231990290020506 4.15254970626232
62 2 8 -0.357197697800479 -2.9421820912763588 4.984755426774398
1007 42 4 -2.32962296589726 -4.749275540357058 4.568654600813454
64 26 8 -0.39553716361654434 -4.716829127118044 2.857352389329361
65 26 8 -1.3119469371968746 -5.086109173555277 2.1243173331882357
66 26 8 -1.8383582880240756 -5.369149108127993 3.7086581728195163
67 26 8 -2.9420749735750524 -5.094961550741995 3.5791768089258005
68 26 8 -2.2007197399643412 -4.095730921069376 2.75703439987438
69 26 8 -3.7026906663477366 -3.37484015428369 4.324656393502766
70 26 8 -2.919805710947286 -2.6386844233152336 4.825068957493259
1036 42 10 -1.297740857960887 -1.9980300655636432 4.996000384049658
72 26 8 -1.286810653235539 0.04222319156389924 4.970880683639583
1009 42 10 -2.182178992356085 0.03723937278135371 3.694923089422432
74 26 8 -2.246949360074166 -1.4398918722291933 3.488363577419321
75 26 8 -2.8493836429209303 -0.48903980564092453 2.868536739973132
76 26 8 -3.3760853491278353 0.9623203053783672 2.020085665316627
77 26 8 -4.175557422321434 2.567283133694664 1.9299947527208094
78 26 8 -4.321674386348706 1.6577286761300511 2.6910957296409093
79 26 8 -5.080175634253371 0.9408069366038213 3.1275423560651165
1017 42 10 -5.234758294864632 1.2389075274424406 4.189416964354363
81 26 8 -3.5631290956716968 1.5693484560008866 3.7408466212453404
82 26 8 -3.2554844094966646 3.302045475711688 2.8930117672023496
83 26 8 -1.9224528778617633 3.6455906974045837 2.5578032796637062
84 26 8 -1.506820945818974 2.752944609892822 2.126469154403021
85 26 8 -2.1364270181582268 3.075933643421113 3.6739731449050246
86 26 7 -0.7511783309370546 2.096869539884688 2.692476815158622
87 26 7 -1.2488504487930288 0.6486219397993924 2.6550108893144246
88 26 7 -1.0188692156627228 -0.38347721479093033 2.1275640953942823
89 26 7 0.5118624729736669 -1.5038310097619028 2.5091182012635356
90 26 7 1.4775731721515735 -1.6009717934962298 1.5671884141962302
91 26 7 0.7256629054116067 -0.4982269504387447 0.8768744592623484
92 26 7 1.093723542494597 -0.27485729990394303 -0.3963084638454071
93 26 7 -0.24236687254619507 0.6733086983035206 0.5919531114795283
94 26 7 -1.961412853740344 -0.11030742685037571 0.753646019131606
95 26 7 -1.1001187221546964 -0.6545101351557455 0.2785352080115608
96 26 7 -1.6067879685089417 -0.617165510796416 -1.0642050331810442
97 26 7 -1.2459102240321116 -2.304110950577135 -1.7705787447124872
98 26 7 -0.3976452377292193 -2.810482174229069 -0.07460523509099966
99 3 8 -0.2474466731716652 -7.398157295466802 -1.2021866526640193
100 3 8 -1.3324838093724258 -7.958428524802348 0.6832812252944479
101 3 8 -1.341778743969952 -8.81808599479784 2.1179256602020535
102 3 8 -1.9256122691515707 -8.066282196870903 1.4792595315059425
103 3 8 -2.298097437729025 -7.105235874036578 2.3031200135782206
104 3 8 -1.7671434642754114 -5.62661184843277 0.7345250268369877
105 3 8 -2.3121900237250257 -7.008824258462354 -0.019842394408889494
106 3 8 -3.6234817100151266 -7.609658098033789 -0.4844480849033721
107 3 8 -2.471586608414544 -7.628108775204727 -1.3310341864132358
108 3 8 -4.023120830659186 -8.186108277460576 -1.5045225784481449
109 3 8 -4.815911967966255 -9.897426537515118 -2.0867625578559355
110 3 8 -5.226579466235096 -9.061541077757191 -1.050556985658087
111 3 8 -4.677110515357836 -10.6135986178654 -1.0476797006546106
112 3 8 -5.714065313314729 -9.639092645544995 0.4633782370602271
113 3 8 -5.5942678130032055 -10.700723823716705 0.320735308658774
1024 42 10 -5.045662428517603 -11.614142345193542 0.26144739721820753
115 3 8 -4.829979393850057 -12.680288966771789 1.6119298921212162
116 3 8 -3.940436837033845 -11.215854142175708 1.1759344037307502
117 3 8 -3.4480875853093003 -10.052920454256741 0.6549104473780096
118 3 8 -4.2899075276809295 -9.037871067930014 1.213575016469447
119 3 8 -4.680142401042369 -8.339802097462258 2.2871398150577895
120 3 8 -4.2404067385380415 -8.443837603414568 3.812764689764111
121 3 8 -4.656519407393064 -7.211761755316975 3.0964647071996265
122 3 8 -4.353975874214174 -6.225818560905668 3.905445116276167
123 3 8 -4.107750539916843 -7.157726165898941 4.610043283601609
124 3 8 -2.7643403769152877 -8.54990327115061 6.057999800367483
125 3 8 -2.898059304087219 -7.740885218994368 4.774784372616902
126 3 8 -2.997003115749077 -8.723638485888172 4.047505970772007
127 3 8 -2.332835282277758 -9.77157627463373 2.419893309619144
128 3 8 -2.7498419576755446 -10.488051197326499 3.772332515870822
129 3 8 -2.853532485212512 -11.576582100621854 3.9173927301324913
130 3 8 -4.368061052118019 -12.570801689796195 3.695933487529173
131 3 8 -6.135168890123928 -12.904335658304461 3.2161974356335192
132 3 8 -7.427815796848255 -13.740112054958056 3.7947589690981203
133 3 8 -7.7311803278009235 -15.226315164541466 2.858912911760562
134 3 8 -6.334055970989617 -14.0849493956532 1.942714991539916
1025 42 7 -4.359726123451514 -14.913234151984753 0.8064982281383226
136 41 7 -5.0452426065321 -15.893565397239518 1.7745542612826262
137 41 7 -5.115030401097021 -16.56439630785239 0.042180412453875236
138 41 7 -5.588343484037449 -17.833189566305748 -0.8224097678801969
139 41 7 -4.8051029222314465 -17.82147581574045 -1.5576312477704102
140 41 7 -3.084436269307338 -16.570699796962142 0.10136659759545194
141 41 7 -3.190944826889429 -15.351014841701518 -0.2783971568491193
142 41 7 -2.171534384762677 -14.294378754305942 0.16089768767515863
143 41 7 -2.6136340575555015 -15.49155565731767 1.551517313684636
144 41 7 -2.041015338039368 -14.623705639522584 2.568608266619717
145 41 7 -3.5059402993481403 -13.756826279040821 2.5629442636801514
146 41 7 -3.95925596798866 -13.630411402948601 4.7075084293241805
147 41 7 -3.842045468347857 -11.714769572600561 3.7994513757015125
148 4 8 -0.17802535438890463 12.477216113305326 16.273747013451626
149 4 8 -0.7799279854905946 11.38702639927317 16.650198306459195
150 4 8 -0.4424807119252214 11.836743494369646 18.409001850657507
151 4 8 -1.6584866357766517 11.373194646547866 18.34778607313537
152 4 8 -0.9977628342507957 10.861283245884913 17.561948705635917
153 4 8 -2.0019645097893064 10.537583288908017 16.957400728570878
154 4 8 -3.4149306312816314 10.876729124793968 17.063253538819065
155 4 8 -3.039446876780302 9.215635980013595 18.03037847802174
156 4 8 -3.5348486704584565 7.841229081463864 17.557517416924014
157 4 8 -4.8866019670355145 7.503261748771989 18.038995520838583
158 4 8 -4.693378375802887 7.112782844491206 16.746924645626844
159 4 8 -3.4934588966148588 6.905603697453085 17.112299475228898
160 4 8 -2.362426687892852 6.1964701900020005 18.502000766010042
161 4 8 -2.07499711636051 5.562487323901317 20.258407645129704
162 4 8 -2.7599480592968573 5.735724500857569 21.099448957738698
163 4 8 -3.618869063124226 4.9409955837879735 21.046042820995414
164 4 8 -4.585895641194188 5.492766504478993 22.31253190181665
165 4 8 -5.266501612571188 6.767662819489434 21.766655437808975
1031 42 10 -5.033381325710367 8.03493828451533 22.029559394651937
167 4 8 -4.265182612371941 7.1627326946502015 22.4575848652052
168 4 8 -5.318343329481946 7.5942867989252685 23.004273211994647
169 4 8 -6.005861259760494 7.115205552603688 23.795519157724424
170 4 8 -5.6931033123949755 6.0244610787305115 24.91301838234606
171 4 8 -4.717131463095706 4.980533837015974 25.189995306478487
172 4 8 -3.675549857754933 3.9475287801653405 24.610374239301542
173 4 8 -3.0273742194545323 3.0869788999866166 25.024695664549682
174 4 8 -3.0184829731171985 2.0307114738141423 25.723415140415533
175 4 8 -2.370316114383234 0.8803828766273194 24.66690271977219
176 4 8 -2.7617572637182533 -1.1387933470392666 23.8666994100427
177 4 8 -3.169389140430509 -1.1799755320749152 25.43325854455427
178 4 8 -3.8432758202316557 -0.7314156086562256 26.51980832313074
179 4 8 -4.219717789327744 0.2012698234949006 27.149995779003245
180 4 8 -4.7497964469464105 -0.8587426929121668 27.36073499132498
181 4 8 -3.7237258157746154 -1.5182490748499822 27.506624145532783
182 4 8 -2.5521305052581793 -0.467388338609541 28.011263005511022
183 4 8 -1.4680318754050954 -0.6209944832006764 28.335490881689417
184 4 7 -0.7620906424721343 -0.22726381101209242 27.153511190988016
1028 42 9 -0.015051084461188668 -0.4364687398133799 28.03475848969247
1023 42 9 0.3796209308047156 -1.794510505869105 27.144008174956262
187 4 7 -1.1012998650717243 -1.3224460001422058 26.16777201076033
188 4 7 -0.9136387799943504 -2.8309867105429993 25.834352487759222
189 4 7 -0.5005048076127322 -2.695388612061047 23.552297881550427
190 4 7 -1.9493751162912176 -1.7843440711630405 23.475707252481197
191 4 7 -2.352300219036377 -2.525090773403376 22.13122457243927
192 4 7 -2.324752612631013 -4.055868891342659 22.099697301500782
193 4 7 -1.565552042316976 -5.504028241785516 21.763753513401426
194 4 7 -0.4855857681561381 -4.79239046505345 23.005247206060485
195 4 7 -1.249017319565457 -5.816265865291343 23.09724044107759
196 4 7 -1.1985259729718352 -7.75109947085468 22.596051893856007
197 5 8 1.00464610324255 -4.122330117188663 13.016984458896555
198 5 8 0.057796585058289135 -5.471358812607184 13.569637456886705
199 5 8 -0.03126193776705472 -5.753405630743032 15.195058754089818
200 5 8 0.2906410449624103 -4.527489065734146 14.735415737290806
201 5 8 0.7911358472178563 -3.821367788299973 14.111037997486124
202 5 8 1.656457085669362 -4.360224862240209 15.698673307688795
203 5 8 3.171360908032069 -3.952076651033554 15.068637717662387
204 5 8 2.516424881653015 -3.8092067314535076 16.14777019311617
205 5 8 2.4823661976399856 -2.200364908853681 16.712280112142345
206 5 8 3.221475695622824 -0.9761474858885019 16.976559383171764
207 5 8 4.012573868113268 -1.6337198555388655 16.544757503904428
208 5 8 5.196145592212754 -2.2638663146461275 16.67926486372696
209 5 8 5.143960567282141 -2.5443802516276692 15.464025742542098
210 5 8 6.151095810548087 -3.2939029995671847 15.841918152573701
211 5 8 6.164793564282463 -1.7903608325958957 15.519167145003566
212 5 8 7.379213466217951 -0.9194327553936679 14.296284396035523
213 5 8 5.82214155725841 -1.612934198442097 12.836949979512879
214 5 8 5.508171315940776 0.10244065504709196 13.080237291457227
215 5 8 6.86774220148709 0.5725050193157648 11.445848409373852
1019 42 10 7.883456243439174 2.1319269655344875 11.775376555893034
217 5 8 6.797145307823725 2.2345989057135887 11.506309916140632
218 5 8 6.770909870712373 1.7862858290271524 10.394861123191571
219 5 8 7.770033718173282 2.7063519886170218 9.436580049494513
220 5 8 7.950195605095736 0.8612055060875347 9.72094919619461
221 5 8 8.392570228469411 0.03264226124391349 8.16623488265328
222 5 8 7.801091354995645 -0.8433707811509052 9.273058149035672
223 5 8 7.03102994747432 -0.3268111003423887 8.508059863993257
224 5 8 6.517595600976332 0.4950546336851585 7.019489937249268
225 5 8 7.504670024755925 1.035226740879549 6.0177839923351
226 5 8 7.96428307202223 0.773312279986133 4.799519929484949
227 5 8 7.069875066610641 1.342737776824963 3.7654950104125016
228 5 8 7.769081610330597 2.905602163583099 4.051052277118943
229 5 8 8.306872412497869 1.1996816118808402 3.8611999453971495
230 5 8 8.980440130023739 0.15865424945476966 4.504434684947672
231 5 8 8.11458292549584 -0.9044588243434158 3.705843203471684
232 5 8 8.275812165894203 -1.3708449409223018 2.451725131106738
233 5 7 9.115046543617998 -2.175778950112642 3.48329605266973
234 5 7 10.014492241485918 -2.2548072052536807 2.313925348868798
235 5 7 8.572754931462924 -3.1581803725836304 1.7618198673243168
236 5 7 7.8831867667472375 -4.872701186072137 0.2982346508341755
237 5 7 7.536521074547447 -4.392543424179151 1.6048734470275066
238 5 7 6.610546131481623 -5.3027057571751905 1.6358813657534568
239 5 7 6.629526040642865 -3.194351639370983 0.9337356987959998
240 5 7 5.3709969585790205 -4.037064174659958 1.1547325738453518
241 5 7 5.406486487670692 -2.998761030547348 1.4620500678445418
242 5 7 5.746635742296818 -2.346652401008924 2.7809180603988413
243 5 7 6.18073766203849 -2.310368035578168 3.943660069969942
244 5 7 6.891991323144792 -0.772643737062824 4.281497195800982
245 5 7 4.688317423684045 -0.6651063751976344 4.751621699045369
246 6 8 -0.9834928078352617 1.4515626054126294 5.039097134513659
247 6 8 -1.0298779452823865 2.9731860175448883 4.068989307914448
248 6 8 -3.0396036076396777 4.068244267559497 4.982793682574116
249 6 8 -3.4849066719533948 3.4492461975047735 3.9435147297915343
250 6 8 -2.735655691303914 5.099662909455667 2.7776526511098965
251 6 8 -1.4029161566801636 4.438313111301309 3.9456708915290117
252 6 8 0.4438690851013154 2.987568655485603 4.1525106578804305
253 6 8 -0.17117840695948025 3.738746380012 4.706681438514353
254 6 8 -0.8057476344783588 3.815971111022625 5.870348776599464
255 6 8 -2.7139281727030813 3.1955122323747283 5.963592625060202
256 6 8 -3.1734139566436412 3.950300359334686 6.628939898659749
257 6 8 -3.6894693797948626 5.625862769547775 7.920928966210914
258 6 8 -2.4690047655186964 6.58755287342998 8.02657027904066
259 6 8 -4.106201134513114 6.605596711723841 8.866250252356966
260 6 8 -5.264474226784192 6.504867314058729 9.767490867890254
261 6 8 -3.980192997130145 5.484474164716974 9.569074046069641
262 6 8 -2.741080887003181 4.63689627313051 9.879549431008778
263 6 8 -2.695510256857611 4.607925160153757 11.590292887235153
264 6 8 -2.8991820788742 3.485878449986439 10.608535089917433
265 6 8 -3.358113678186283 2.6290506101265336 9.943657744913645
266 6 8 -1.7754072958604183 2.106881009965828 10.34179961604305
267 6 8 -2.364205558880131 0.6194533964927202 10.112021963169285
268 6 8 -2.8594618137888115 0.8362181837966075 11.036417692786147
1034 42 10 -4.035831401850111 -0.756289929235981 10.43138216134698
270 6 8 -3.3648909943121867 -0.8834230930274811 11.499677708023084
271 6 8 -2.094985975908021 -1.8409022299694644 12.348644263959189
272 6 8 -3.5884935419132082 -3.5296907744945 11.976265416075181
273 6 8 -4.618955410265683 -3.384898261278014 12.712976706109206
274 6 8 -4.227868122091184 -3.2376248121570197 11.118925381202956
275 6 8 -3.3035531971642587 -3.9100963405697384 10.307157314427688
276 6 8 -3.657377766871857 -3.1253558739983385 9.426792646207776
1033 42 10 -2.451634883739888 -2.733257750508351 8.571452152523667
1012 42 10 -2.942621943184623 -1.572938247898241 7.564869342584234
1026 42 10 -4.386609921550988 -1.6893962081795757 8.399691580371874
280 6 8 -5.215975726284996 -0.7427232575323763 6.631359624585686
281 6 8 -5.540717985383918 -2.484117188415093 7.911834158789747
282 6 7 -4.458834531044865 -3.2011667805521427 7.485212681434139
283 6 7 -3.2998908827595153 -4.127957502980927 6.83225927126094
284 6 7 -5.006307479632823 -4.016351882115156 7.513760340573799
285 6 7 -6.610419903422831 -3.2952921461341607 6.300452778977244
286 6 7 -6.716923295517985 -4.5020749092359305 6.828371127290293
287 6 7 -6.087034364643597 -5.855407868960482 6.44958417442018
288 6 7 -6.248665727965159 -5.339676127351061 5.467967582398568
289 6 7 -7.17497610299081 -5.86550358269367 6.0810277265782755
290 6 7 -9.479915708377325 -6.8950367369316545 5.656933482213454
291 6 7 -8.672254936339622 -4.7576245106502455 4.659545339776195
292 6 7 -9.469141423968603 -5.092717084702192 6.274131985024207
293 6 7 -9.13562312796256 -3.857051451724739 5.990417288837165
294 6 7 -9.304046817215527 -3.2887775282309257 5.00573605338877
295 7 8 2.929994101892974 12.978520734130113 6.795777644490991
296 7 8 4.303863550581857 13.480009758912459 7.531522341812869
297 7 8 3.2581027224525982 13.826785342191142 8.515068808957835
298 7 8 2.3345319758767915 13.505287545273708 8.726642993902958
299 7 8 1.910269098944875 12.151122346537472 7.8769026508543645
300 7 8 0.8954801763518906 13.560223679105912 7.822420768714101
301 7 8 1.1400865436047973 14.161078714900531 9.032261332939653
302 7 8 1.417386335349025 14.931888982835844 10.108119155124458
303 7 8 2.3434481429613463 14.010545424723446 10.557829802342539
304 7 8 1.3858855619390962 13.953507758096702 11.040138148815933
305 7 8 1.8316953557435152 12.79885442042386 10.446522052192252
306 7 8 0.4346033588358748 12.463537674059967 10.677951033731079
307 7 8 1.6108229604157247 11.875444399010975 10.62032754005519
308 7 8 2.77314945844972 10.689880211204697 11.23327907435715
309 7 8 4.101131613264856 9.456504571848972 10.78976626612512
310 7 8 5.447325580319316 10.181865946249461 10.092003331741202
311 7 8 4.732436369290981 10.039603956673128 8.558720678667816
1011 42 10 3.9687350929832386 10.19773783805647 7.786657741178355
313 7 8 3.9549176516418605 8.64145493095095 8.2878184760765
314 7 8 3.634330590899851 7.386693992648634 7.32708313786332
315 7 8 3.2521366218562844 7.599300909129492 8.850803502464037
316 7 8 3.4462347044585746 6.6967130397951635 10.010661671787231
317 7 8 2.2705451924955806 5.5318226501035355 8.710788331453774
318 7 8 2.460388246192452 3.6346657038677717 8.77847566724928
319 7 8 2.166033632924935 3.0051642981049365 7.5046992844824185
320 7 8 1.1715658685536865 2.848197637275388 6.376289656537615
321 7 8 2.479808388565425 2.042025834089621 6.103226240094669
322 7 8 1.2222413432062078 1.9400201574441718 5.906333894143391
323 7 8 0.5079734459738102 2.5586083538693445 7.29317964249221
324 7 8 0.19704567585978172 3.4306562311141096 6.94193277487693
325 7 8 1.2256251128712128 3.55028827776508 7.266490396355769
326 7 8 0.3042074301196879 3.8925332798813272 8.31027730771051
327 7 8 -0.06286224819278617 4.921693449985313 9.130058723382836
328 7 8 -1.127467143081148 4.691464490104298 9.410217408153121
329 7 8 -1.423093011064016 3.172200749767108 9.314507981817378
330 7 8 0.2893625580495177 3.6282552071366725 9.875126991003611
331 7 7 0.6009721387682154 1.6809924101651867 9.802371640946236
332 7 7 -0.33199313955416276 1.1244730664075164 10.53456810818095
333 7 7 -0.9533711589512927 0.9815473974675727 11.795849231790637
334 7 7 -0.11557485970490974 1.7829771696960723 12.818267238765921
335 7 7 -0.35551318785569463 2.3156719112160236 13.639554077273708
336 7 7 0.9474775956896441 2.1669244213861734 13.323286615255872
337 7 7 1.6947610099920236 3.323118730520229 13.510312367203683
338 7 7 1.0520466500225394 4.1670166110093545 13.310991796060648
339 7 7 0.08119647305253556 5.196277859935366 13.972013560850742
340 7 7 1.2941484773344039 4.854408077838297 15.058612663568379
341 7 7 1.6301502359464357 5.126677913964386 15.970631851194556
342 7 7 1.819634495768458 5.896504041316286 16.657165579625836
343 7 7 2.832557265221275 5.696914407364519 16.91198385277765
344 8 8 5.917052657727632 18.441852335266383 -9.053230394437513
345 8 8 6.019094034145822 17.620641474271526 -7.422077873246116
346 8 8 5.263970733478998 16.60569140636496 -8.805046896383944
347 8 8 6.001484790411325 15.883500008070822 -9.466711395642374
348 8 8 6.385066860504225 17.557376075402953 -9.301615158207031
349 8 8 7.267268702129802 16.916809652769732 -9.249566488430757
350 8 8 7.11254525581593 16.102457155391882 -8.487286477730603
351 8 8 7.060437858668281 15.769765983371347 -10.180600482998386
352 8 8 6.150795413185716 16.665114313654534 -10.38758197105347
353 8 8 5.984888256670148 16.441024482249876 -11.500238065482923
354 8 8 6.39177960508303 15.31011824089167 -11.41643851233709
355 8 8 7.429395159311485 14.743032445988801 -11.546557012552896
356 8 8 7.56333042611504 14.31996709645351 -12.969050372258634
357 8 8 9.154136746912457 13.776095044414458 -11.965596079618564
358 8 8 9.549964705312556 13.71192213993452 -10.789674554423549
359 8 8 9.088195921459688 11.694210018764927 -11.417149009638258
360 8 8 9.766272388816624 10.350446722262005 -11.194858584319908
361 8 8 11.102071632933463 9.532151683790755 -11.738187342363984
362 8 8 11.790516014375164 8.92567950010199 -11.117787751064194
363 8 8 11.702659233518592 7.781752406097514 -11.962555069916869
364 8 8 12.062051717958175 6.8936152469003025 -13.919943599527599
365 8 8 11.48748356469183 5.853118225375738 -12.932605191170978
366 8 8 9.75626277527135 5.295487922160114 -13.351338808238777
367 8 8 9.181339403904866 4.656224973661308 -14.340711742708894
368 8 8 9.136718935759806 3.3094534703483838 -14.949954257332385
369 8 8 7.583998756312776 3.795977470458581 -14.710331278808452
370 8 8 8.20425639335567 4.770659144925789 -15.534797991317095
371 8 8 8.951708081813438 4.882388453081023 -16.80057991260083
1035 42 10 10.795343708098862 4.237612314458759 -17.277138170068742
373 8 8 11.139524445966234 3.906461991635655 -16.076558889538365
374 8 8 12.733912300953602 3.619551970152711 -16.453644397373022
375 8 8 12.585861128490938 2.1288994969135437 -16.948949513609993
376 8 8 12.781492457715713 3.166708363234093 -17.740279301648577
377 8 8 11.379876948316037 3.3173272010377106 -19.26751702226297
378 8 8 11.54907050561362 2.0760724240139985 -18.612061737368098
379 8 8 12.599483019363221 2.1302982607670478 -19.361107946894297
380 8 7 13.82118531537774 2.0019751244168265 -18.538187115880813
381 8 7 13.989247822979726 0.9856621713425043 -17.407048703839518
382 8 7 12.662417412833898 0.4615072253179364 -18.571793429139532
383 8 7 13.50128688545928 -1.1260673758063497 -19.03240405240102
384 8 7 14.188595634782484 -2.3252693133345104 -20.29662207101131
385 8 7 13.63939214342806 -0.4762157003606491 -21.15312472886873
386 8 7 13.8733489507821 -0.22870663477731043 -23.552612068157146
387 8 7 15.121470365727673 0.10767379421396352 -22.820909127275314
388 8 7 16.533012980874314 -0.8159982752497522 -22.49436622995219
389 8 7 17.61072798927517 -1.3696119221813214 -20.796611684390975
390 8 7 18.975206087845628 -0.23395329110974905 -21.365458397767895
391 8 7 17.863399679121613 0.8777841187373827 -21.744862141648152
392 8 7 17.74908428425446 1.0923276516160307 -20.207737626907935
393 9 8 -4.929662420774062 -3.4145260381279816 -15.535065935024685
394 9 8 -5.525199617045517 -4.421618261889819 -15.065128373439167
395 9 8 -6.41044243695203 -4.367605024676504 -13.772013700902438
396 9 8 -6.385549773571567 -3.4010172132397805 -15.048997181451266
397 9 8 -6.962944543741473 -3.175343096333778 -14.131729614456114
398 9 8 -8.622350162598302 -2.049601533231986 -13.679342375061783
399 9 8 -8.976218533597617 -1.797114473787493 -12.491074429762309
400 9 8 -7.666149484957125 -2.172908083766087 -13.140227639547662
401 9 8 -7.319605405034371 -1.0729522918367103 -13.096172217961724
402 9 8 -6.466489629407032 -0.31551869756991946 -13.514993676873729
403 9 8 -5.318344377047447 -0.1510708816172621 -13.390770724994798
404 9 8 -5.014280399779047 -0.5407900712776388 -12.499337528049594
405 9 8 -4.996694303551566 1.2547043341981239 -11.093878571918133
406 9 8 -6.310007977255699 1.2898100099535212 -10.348322552111823
407 9 8 -6.654032074792323 2.5302470796537135 -10.23219463033859
408 9 8 -6.715638509458659 1.7046376155026681 -9.376248719864586
1010 42 4 -5.112619139281538 1.1904154209804105 -9.40938021040236
1022 42 10 -6.8319406803057285 0.9081560071620585 -8.362980875302888
1016 42 8 -5.249650993467058 2.134506083698175 -7.880250967847164
1029 42 10 -4.927762759559794 0.019408503797495723 -6.535661226831493
413 30 8 -4.0458576465775495 -0.6559862665998046 -7.811854543660351
414 30 8 -5.3723783190935865 -1.6477733542908413 -8.230508074903993
415 30 8 -6.454955311540572 -0.6495448353209271 -7.453914701487135
416 30 8 -7.538456700834834 -1.2181207034488353 -6.890277862974145
1021 42 8 -6.930809051729571 1.1149063435522535 -5.316996348563002
418 32 8 -7.435992360119434 0.5299813491721236 -6.135195675385357
419 32 8 -8.275295555652464 -0.20052861882737802 -5.8656125496953475
420 32 8 -8.697434193805936 -1.4313067784818523 -5.9226606393435555
421 32 8 -10.508915264751568 -0.9991797831969439 -5.58923136799756
422 32 8 -12.384894474620976 -2.0293947965840387 -4.878129423180038
423 32 8 -11.595830982383507 -3.115929584640208 -5.538174292531597
424 32 8 -11.579960464070803 -4.01816169459463 -7.185948730980822
425 32 8 -11.579993563337561 -4.367164991676159 -8.658757966431214
426 32 8 -11.135060045025657 -6.09023770906387 -7.1785723544773825
427 32 8 -12.129003385518164 -6.015290873528539 -6.673816120000947
428 32 8 -12.610641006475507 -4.990291402281019 -7.003155320379599
429 32 7 -13.234864369273973 -5.517256546148192 -9.168022686392705
430 32 7 -12.851446490809655 -4.184039256909124 -8.59862190695405
431 32 7 -14.491835618178884 -5.173810197530307 -7.384958666978303
432 32 7 -14.121408751725168 -4.987695281788351 -6.0930124301492254
433 32 7 -13.893075407278358 -7.1781297154702335 -5.475912584790726
434 32 7 -14.604776376737483 -7.4532989780066 -6.418983596017973
435 32 7 -13.537431502153522 -7.102711753789265 -6.919487868675388
436 32 7 -14.043130405871311 -6.920596434440313 -8.150417718765146
437 32 7 -15.634184725295968 -7.671665316547368 -7.250806118263276
438 32 7 -16.029643596524625 -10.19966531808551 -6.815205473290398
439 32 7 -16.697338497946816 -8.588769508213092 -6.5690791454637765
440 32 7 -16.388164642836497 -7.823738535744428 -5.544221669645275
441 32 7 -15.266227476160521 -8.990396219946101 -5.848082460098653
442 10 8 -0.8000983291683016 15.666325731133476 -0.5945978643395086
443 10 8 -1.0849847475869494 16.05352944065616 -1.9149198211625549
444 10 8 0.10882895454492494 16.65038824791965 -0.9795743758891989
445 10 8 -1.5447065476602955 16.56443438892186 -0.4192767763513968
446 10 8 -2.3232406883736085 15.11982154117878 -0.06670127301783936
447 10 8 -2.5012964843921064 14.4632703243199 -1.0701574002475642
448 10 8 -3.049805495473421 15.449311731832589 -1.4663029183856846
449 10 8 -3.8061699152154937 14.179331383395091 -1.1640215268818532
450 10 8 -2.7999029603881445 13.319410708317434 -1.0858531700149263
451 10 8 -3.162586195129021 12.77568230146797 -2.1365274824658678
452 10 8 -2.496847770976178 11.804323661632818 -2.7027690596046074
453 10 8 -4.037018420577201 10.64982647063869 -2.6131266411522507
454 10 8 -3.634222448736586 10.247868582053682 -1.639597667712863
455 10 8 -2.7483434174760477 9.614844572941863 0.2861742083450979
1015 42 5 -2.1058777875501815 9.104263762025003 -0.6935366870041604
457 35 8 -2.790348865618376 9.656292610823497 -2.1764552162944693