# Generated from readdy-to-lammps

1005 atoms
581 bonds

10 atom types
1 bond types

-30.0 30.0 xlo xhi
-30.0 30.0 ylo yhi
-30.0 30.0 zlo zhi

Masses

1 1.0
2 1.0
3 1.0
4 1.0
5 1.0
6 1.0
7 1.0
8 1.0
9 1.0
10 1.0

Atoms

1 1 8 -14.097418212474727 -9.618612193839542 -9.66037670708779
2 1 8 -13.935504250382817 -8.12684825351367 -9.85475932793573
3 1 8 -12.677864693419716 -8.39753597508585 -10.45393177128774
4 1 8 -13.801526213321281 -9.754178355208698 -10.936900482658762
5 1 8 -12.049940597127106 -9.656408154131581 -12.126584967775722
6 1 8 -12.182754953837394 -8.64848129831302 -13.081802543493927
7 1 8 -11.560348261437218 -6.582707004494302 -12.212826707912233
8 1 8 -10.631309829410768 -6.593514750951763 -11.59450107690807
9 1 8 -10.530039107918366 -5.710635499735357 -12.662593862319113
10 1 8 -9.283421590477852 -4.750137092996263 -12.269909587705332
11 1 8 -10.348399203287954 -4.871856057662794 -13.50712731225053
12 1 8 -9.44778346448005 -6.09938603159716 -13.387387092234107
13 1 8 -8.43797450543755 -5.971349694236916 -13.089866108560097
14 1 8 -9.460639281935908 -6.479057558991892 -12.055429456952627
15 1 8 -8.243536106210476 -7.166429963663522 -10.896948330377723
16 1 8 -6.474938651669777 -6.583117208696299 -11.303790412498907
17 1 8 -7.316615574365141 -6.803460383655784 -10.23379852007174
18 1 8 -8.867434023963543 -6.511660242779592 -10.353367998557355
19 1 8 -9.272015721836725 -5.562064616001295 -10.7270594109351
20 1 8 -7.416472852691033 -5.478002500998949 -9.74926007359855
21 1 8 -8.54977465287021 -6.28500274328513 -8.597926085510112
22 1 8 -7.183436558475867 -7.450751188116719 -8.377451509939336
23 1 8 -7.869786874988209 -8.734515173032744 -7.506932977539354
24 1 8 -7.676864115420103 -9.902851316276765 -8.343113654970582
25 1 8 -5.4460753454459665 -10.59876050848503 -8.76303365056493
26 1 8 -6.37035477782704 -10.315187559115532 -8.447084964813966
27 1 8 -6.237714816680148 -8.858932541982995 -6.823463002757615
28 1 8 -5.9792449690119955 -7.981718317535243 -7.965370967914233
29 1 8 -6.458876057521916 -9.353344110806468 -8.462405478585847
30 1 8 -5.900785574365626 -10.043120661991935 -10.114576771802211
31 1 8 -6.160025760830457 -8.677814380530792 -10.452274799219904
32 1 8 -4.721577051739515 -8.402620553704798 -10.224031560438853
33 1 8 -4.032603875262963 -8.620011679949053 -10.995748040597979
34 1 8 -2.6999725671318844 -8.257974723628552 -10.026354308276282
35 1 8 -1.7824752091998468 -7.946307469646252 -10.168823987368313
36 1 8 -1.3094032578492962 -8.669396281437802 -9.480019080488791
37 1 7 -0.5555589929243239 -9.351600635562203 -10.354265810130748
38 1 7 -2.3612487767268 -9.208217291542843 -10.472691673707635
39 1 7 -2.551858992457858 -8.894213810252552 -12.202846657598803
40 1 7 -4.156813603441575 -9.258063394255524 -12.74906950840702
41 1 7 -4.66968493865745 -9.072931660292038 -11.956409357916565
42 1 7 -5.141902497437348 -7.53785921734743 -12.689070172801536
43 1 7 -6.059810287986415 -6.638225283552642 -13.054130669350231
44 1 7 -4.99009861935537 -6.023339531553166 -13.754947367272436
45 1 7 -3.093415928788471 -5.186070797135197 -13.239228193950495
46 1 7 -2.996274770339452 -3.832613977653218 -12.373379588808021
47 1 7 -1.626531322424597 -3.5849657362792415 -12.438800385541631
48 1 7 0.5141371795681037 -4.872214477431524 -12.31599534116928
49 1 7 -0.2427493900280025 -3.7809369079846107 -12.62392308501871
1050 85 4 -3.679943162543758 -1.5158747865726903 2.56041147978229
51 85 5 2.945222294765338 -3.9408014839249144 -8.473534267930058
1046 85 5 1.5182906069203796 -5.679453666642732 -0.9974439648672375
53 85 5 -3.2913360670740106 -6.025118793648996 -1.192440953025198
1042 85 5 5.36294683248322 -2.7662731440415547 -1.7992483514715558
55 55 8 4.380225957001038 -5.507423179495683 -0.3475660874089391
56 55 8 3.8578097258823307 -4.685015677704185 0.21224517301175286
57 55 8 3.305107453638782 -4.329401080982322 1.1440926362987593
58 55 8 3.2343769270120903 -5.507427706231382 0.10516734588536297
59 55 8 3.175394975367373 -5.35422275783661 1.646679842488642
60 55 8 2.3044611657016296 -5.803834584692587 2.1131281191888625
61 55 8 1.2157924613520819 -5.9617048683100755 2.2240067530495646
62 55 8 0.27703765113462153 -5.51006568072821 2.2869352888282646
1007 85 4 -1.1049785448053357 -9.667386414794644 7.257816853485083
64 27 8 -1.2093855621086544 -6.471406912177575 -0.09082093893098735
65 27 8 -0.4195649193970339 -5.63082005676428 0.965412678061165
66 27 8 -1.4830361603348294 -5.4083449963050505 1.9127153080458885
67 27 8 -1.8598254031695518 -5.370381975062162 3.04482522529464
68 27 8 -0.31273364885196187 -4.978310124426926 3.0901712365819987
69 27 8 0.2256850259518698 -4.691336278252459 4.336555779827839
70 27 8 0.07753065745142373 -4.533820383601507 5.926494857545754
1036 85 4 -4.866013240490055 -5.194199430029556 5.112702971811394
72 85 5 -0.6915984520534693 -0.5299654292947837 1.1996935858777462
1009 85 4 -0.3405549866153898 -3.917480082879869 10.251403722310554
1104 85 8 -2.214410158002201 0.383047859662342 0.5969006999978098
75 78 8 -2.8991306579282976 1.584426918208744 1.5296187841404065
76 78 8 -1.6839920518719151 0.878757468042457 1.250079561648934
77 78 8 -3.252468247374264 -0.3581372785871903 0.47829863721414295
1074 85 4 -4.681817677613364 1.4760175371534787 1.9105740874162433
1037 85 4 -3.5858190135321455 4.782466911739908 8.726195370076825
1017 85 5 -4.841380415443854 2.4827533654597063 5.7320855579977845
81 60 8 -4.411661639765087 4.182938862923851 2.9948663568925076
82 60 8 -3.347075626043562 3.3808508754159705 3.0708310096938254
83 60 8 -1.7657576975797624 2.855728069661118 3.037795895435052
84 60 8 -0.8778769246036103 1.457542198629019 3.391037796465909
85 60 8 -0.47455668711555693 2.459526706951782 4.13129806800036
1079 85 5 4.2637944993213805 2.2304189061738855 -0.1819618772906748
87 67 7 2.7876151986575333 1.713805622192685 1.8870275843221311
88 67 7 2.136643594854982 0.6593879211778284 1.5193969323943448
89 67 7 1.2003308921963411 0.10952086630835906 2.6669706935659567
90 67 7 1.028592284007088 0.11763032658796278 1.4419477803679195
91 67 7 0.7602297745964015 -1.029034257769402 2.0788184312032594
92 67 7 1.428213256259626 -2.4190303060849234 1.51197995724831
1044 85 4 -0.8959981484680071 -1.2164718246020945 -1.8354417844429707
94 59 7 -0.5945560377507085 1.1906345414901556 -2.720673005363155
95 59 7 -1.2216291979277993 0.7736504822714542 -1.344427399807435
96 59 7 -1.8671620181696722 -0.6048155142628255 -1.5952002790453446
97 59 7 -3.2803258668731976 -1.235711848804944 -1.2130471292858334
98 59 7 -1.768844188001311 -2.1059668695101825 -2.2431937486233156
99 3 8 1.5698656635577426 -7.921924514354935 0.3201567489738688
100 3 8 0.09960552653853856 -8.34404197277309 0.5030368271175171
101 3 8 -0.43083658007888803 -9.828502288956212 0.46196420025717966
102 3 8 -0.6602097229064777 -8.99623190338578 2.16558675325118
103 3 8 -1.7028182019775517 -9.138355946400221 0.8986632273556188
104 3 8 -1.5337573526472335 -8.076504863876945 0.19474191076786582
105 3 8 -2.2853064326838077 -7.4341870433584525 -0.4150304194132779
106 3 8 -3.5507052257624943 -8.13772286110774 -0.17330728837234466
1107 85 4 -4.455384542532702 -10.549419966434089 -0.6281275099908804
108 42 8 -4.912576585210017 -8.325742410502805 -1.6959052935757055
1110 85 8 -5.859508172264274 -9.608342632206634 -2.542356458396307
110 61 8 -6.8350911077460585 -8.814108018790618 -2.7605720311630306
111 61 8 -7.1445152296515895 -7.5737942930408995 -1.8864891875624856
112 61 8 -6.628207900541734 -8.221166848114475 -1.0711044785903436
1116 85 10 -6.965239212482326 -9.164688599471074 -1.132475864769058
1024 85 5 -3.574502585891782 -11.120248988375156 -2.8729157108121623
115 44 8 -6.0915254316912195 -10.155070238200969 4.182500958079396
116 44 8 -4.635170679132829 -9.625550664233067 3.779376982792004
117 44 8 -4.517064485232203 -8.440651554031733 2.5064066769114914
118 44 8 -3.7555139148024823 -7.853545380548978 1.5408086910239647
119 44 8 -3.083667845420208 -9.387133745443768 1.4502254512821349
120 44 8 -3.2954918010611918 -8.38162399746459 2.311444251520744
121 44 8 -1.4092094178367802 -8.014438727783281 3.044559611832753
122 44 8 -2.407408421269111 -7.866464398843083 2.4503696098034897
123 44 8 -2.1811859268184786 -8.5268554103113 3.876847927796431
124 44 8 -2.0099490714480472 -10.09927419904534 3.4016578182077675
125 44 8 -2.7301781551828364 -9.862643510354335 2.379863980263672
126 44 8 -3.4429491490299164 -10.86655665272224 3.2479820202220626
127 44 8 -4.296599514216042 -11.60975910272081 2.7180250349773436
128 44 8 -5.814434178294054 -11.494051754213487 2.980718095894159
129 44 8 -6.51483182156715 -10.858221748498453 2.4410195858419903
130 44 8 -6.248032842243648 -12.499809085538395 2.576284400474087
131 44 8 -5.4697409859714545 -13.21859087326144 3.1205633024155373
132 44 8 -7.064461954146638 -13.321475347578716 1.8198584311371908
1097 85 4 -7.265327830657517 -15.04594422797052 4.788858628153815
1084 85 4 -9.130776721039506 -13.097160820192943 0.9698836116615883
1025 85 5 -6.541134749203478 -10.320083186443027 -4.191370127354123
136 41 7 -5.936852348897286 -17.20209981197009 0.1436265550316634
137 41 7 -5.342117739166581 -15.855476204258778 -0.8733893378892551
138 41 7 -4.914819982575824 -16.089261792782303 0.4337254405909451
139 41 7 -3.8660372232632096 -16.961387338456937 -0.2936562380589458
140 41 7 -2.3401743691658656 -16.5654626372492 -1.3656942737490578
141 41 7 -2.2292493911358306 -16.329012274122668 -0.25605050150521425
142 41 7 -1.986654801587178 -15.319852486162201 0.6354660748475673
143 41 7 -2.3764974174905915 -14.404092869090087 1.8193288852580702
144 41 7 -3.288605686346212 -15.214278515652236 2.51164691268126
145 41 7 -3.902899929000312 -14.875315414129508 1.578887754893657
146 41 7 -3.2430259057253816 -13.933953491481356 1.3314566782578612
147 41 7 -2.6972939759533503 -12.770261794923961 2.1547754111449464
148 4 8 -1.0571614758760326 11.131452961220882 18.999482048071393
149 4 8 -1.5002965359290423 11.524824004048586 20.557027513929427
150 4 8 -0.6709409201950546 11.62481948277159 21.45130064093873
151 4 8 -0.5922929145317605 10.53571176237456 22.102273256750177
152 4 8 -1.6551932493514543 10.05582603711515 21.395238148387165
153 4 8 -2.0920236132416523 9.516287028016826 20.63021969721799
154 4 8 -2.9334844789479813 9.756836056050718 20.010756496717025
155 4 8 -2.374060695131032 9.159520053434182 19.009614225484945
156 4 8 -2.81291790963554 8.840565217980474 17.50390790842977
157 4 8 -1.909692778372939 9.354709296763115 17.25038511672722
158 4 8 -2.5549222840111114 7.838311744943944 17.193452227966535
159 4 8 -3.3235163490590995 8.13010888017286 19.54213064843443
160 4 8 -3.5704380735744587 6.903343060162775 18.98140188377093
161 4 8 -2.5759839776961817 6.064630017961384 19.813911394254777
162 4 8 -2.8692048859294945 5.935909605327501 21.168488766224066
163 4 8 -3.0680283730520093 5.037452781677461 21.79748937406665
164 4 8 -2.677061965960835 3.97380392568981 20.909667147936446
165 4 8 -2.717412261689615 2.8534154497360533 21.075995887853473
1031 85 4 -5.139768978320344 8.782260007720565 15.497914218475268
167 85 4 -2.8228992187682036 6.264714237742927 22.721506447945433
1043 85 5 -4.302072490607862 3.756687621739417 24.332715453132458
169 68 8 -4.391497622165984 3.058794669337532 23.14591121593284
170 68 8 -5.189155381669791 2.3853915681546285 23.899007341208318
171 68 8 -4.564766569826722 1.658000583618467 23.74623647551105
172 68 8 -5.199536875530796 1.8484258098087651 22.529273529829744
173 68 8 -6.497650902338784 0.4640717003922532 22.35899680642991
174 68 8 -5.833043780828592 1.1541427260605894 23.299695959570226
175 68 8 -4.609139626859688 -0.427322525170936 24.406175387865147
176 68 8 -3.236273313066524 -1.319239939279405 23.18660413197987
177 68 8 -3.4752252736169607 -1.9704590917502374 24.47122801288208
178 68 8 -2.802658366270737 -1.723428863373397 26.19720357704179
179 68 8 -2.4137028407628933 0.8842779110303057 26.835274516966557
180 68 8 -1.7076349768474905 0.0655073716745603 27.89086035651142
181 68 8 -2.2131726850132876 -1.4333321730561557 28.36497498390016
1106 85 10 -1.4448643247353188 -2.12609395815832 27.710359081337288
1108 85 10 -1.1932162256382794 -1.5998584569138012 28.818821719540587
184 68 7 -0.8488014568321937 -0.9553929939216516 -29.974575384664927
1028 85 5 -0.7227171265494569 -0.43629141749310324 28.69685907365074
1023 85 5 5.689372446630288 1.1268355274278332 26.863394041757566
187 30 7 1.4955393763683251 -0.7573632094478981 24.057704231266655
1091 85 9 1.0340680308536072 -1.8152097538137346 24.409143102341883
189 30 7 0.17290633929635 -2.425532627576038 23.677815298155377
190 30 7 -0.9318180637721905 -3.4882307000462784 22.71135982082254
191 30 7 -1.5943323357343602 -3.7797878252109176 23.440531722212903
192 30 7 -1.2324881762619282 -4.087971115825836 24.523848131958214
193 30 7 -2.6030962120960597 -4.658168860673888 24.548208336760812
194 30 7 -4.3679588922091614 -4.578816943597632 23.51492552473482
195 30 7 -3.4329710898052404 -4.820144861568607 22.073615465129016
196 30 7 -3.073085416178524 -6.752600367582565 22.19606207582465
197 5 8 2.832897583699174 -3.1903695763416677 12.045442940317333
198 5 8 2.508547611106123 -1.75361536376501 13.127481851299446
199 5 8 2.9239238973227266 -2.7765754373073577 13.060076935247261
200 5 8 1.3818077039732695 -3.6349799713699067 13.728003892098219
201 5 8 1.2563194194253475 -2.7461210597459136 14.456778870618686
202 5 8 0.20296718148683304 -3.506892217736006 14.9885175384728
203 5 8 0.2552769950794536 -4.243141972180927 16.35865609501436
204 5 8 1.3201075274120457 -3.9793838813884355 16.688403259463282
205 5 8 1.6506581885719533 -2.825889039109203 17.65229562249446
206 5 8 3.2563827985171674 -2.9682303994092805 18.73891223196289
207 5 8 3.18146062478261 -3.538508302600449 16.831240103046166
1056 85 5 2.905529028108547 -8.615991098382974 16.72033596504325
209 72 8 4.458253645208813 -4.287335848513831 15.646290730523951
210 72 8 5.48403128508512 -4.287852811626367 14.212991010401542
211 72 8 6.461579150098869 -3.509125846612865 14.696088127920937
212 72 8 6.735855730164358 -4.117874538781706 13.14112361845446
213 72 8 7.492099065494567 -3.0799220500710467 12.191810047430238
214 72 8 6.335810675056516 -4.494416246301871 11.776049256563471
1080 85 10 5.8588529680722345 -3.3131137046077765 11.341519157240675
1019 85 4 4.669222296596111 0.6630802822792842 13.982383539966337
217 29 8 6.028724953513548 0.9353033820437378 9.038989489514375
218 29 8 5.800392858556848 0.3862180188584905 8.066640526145893
219 29 8 5.125117600382893 -0.6734351096590945 9.269072093091454
220 29 8 6.322446692078334 -0.21100279422138163 10.185048572136377
221 29 8 7.616910848875891 -1.9226394419391513 9.963637090506975
222 29 8 7.9143601291446215 -0.3904192488858017 10.215723895875813
223 29 8 8.410144603916201 -1.7534742765944678 8.947561404937678
224 29 8 8.71743469141455 -0.8826133608041487 8.008752130293916
225 29 8 8.412028129617678 0.22239309333216106 6.275691796658744
226 29 8 7.604299055318142 1.080953306071587 6.029195867203831
227 29 8 6.972538707554558 0.21092821257972857 4.264656543696843
228 29 8 7.539854597683576 0.6665736327092445 3.391318374491739
1113 85 10 8.46166884467223 0.7743188862401538 4.417122494393247
1054 85 10 9.79039721670892 0.46808418930418416 4.93530467848239
1076 85 10 10.836417491662546 -0.2487851095153267 5.302481746595276
232 29 8 11.75669467760048 -1.2932727050245127 6.226693850001205
233 29 7 10.36690076530446 -0.8134572182095081 6.458023972216756
234 29 7 8.99730367040248 -0.711714346184483 6.068834824704895
235 29 7 10.351042989210022 -1.1033148269374742 4.300373862423936
1112 85 7 8.75285524703634 -0.910560479830546 3.558788887085566
237 84 7 10.787094475382263 -3.42736461892261 3.1938652587633367
238 84 7 9.938251718603574 -4.098063819882375 2.923295339530199
239 84 7 8.781417001054045 -3.583434386149521 1.443713847481625
240 84 7 8.601610165123045 -4.258368377730502 2.67141803392659
241 84 7 6.961438684910619 -3.87304572216338 3.0814490069083824
242 84 7 7.166497897809333 -2.7567600123427143 2.363121725852498
243 84 7 7.7027626451654365 -1.583477754327421 1.0600960092991092
244 84 7 7.837642014445328 -1.579870718545352 2.7279567203643946
1090 85 7 6.61503553844936 -0.5508673297394191 3.174485243110458
246 85 5 -1.2532446035325198 4.652660926289909 2.8559891827377917
1052 85 5 -1.5619253348934345 5.453518799137516 4.720661264396806
248 31 8 -3.7539470022519517 2.4335896924948 5.24536851882614
249 31 8 -4.1586585368771924 3.7147174417734856 5.413807655022596
250 31 8 -3.7349977204981877 3.2394692099367317 4.125219645317369
1115 85 10 -2.20881621071739 2.7331908659151543 4.117742518319294
252 31 8 -1.541827620354248 2.4065602392760437 5.329361079726219
1109 85 4 -2.0097743903549463 3.197841632470683 7.375388798911054
254 80 8 -1.1684764650302852 3.7226492352225624 9.01626869014933
1071 85 8 -2.4674532204426773 1.4842797336982239 9.36646641722946
256 69 8 -5.202416502305656 4.973037448051835 6.720361989706503
257 69 8 -5.216072535339513 4.242169547117968 8.099403642610525
258 69 8 -5.229341579894518 5.186134292383846 8.843513658468272
259 69 8 -4.541906779509361 4.706455719110793 9.386755821968936
260 69 8 -4.0531742574820955 5.687522455400505 10.823467381847742
261 69 8 -3.403632620072364 4.7607331146142755 11.361483578372718
262 69 8 -2.2966494021696695 5.467438179289624 11.528590206473352
1069 85 4 -4.1647496416963055 2.5100553390684444 8.151912309812992
264 62 8 -4.465749115734578 2.6586386691930475 10.863416847831019
265 62 8 -3.0345257963298273 2.0183829342310236 11.901664655495992
266 62 8 -3.1111178887148387 1.9237920159608177 10.7152776010986
267 62 8 -2.5683225394940066 0.9129452118834829 11.3114543895122
268 62 8 -2.10461788307834 1.20599531281156 10.429529336783638
1034 85 4 -6.007392291186012 -2.77273935385015 12.188396849661785
270 47 8 -5.195953694334852 -2.024308199055308 14.401587024476262
271 47 8 -4.508888589819558 -2.823294838715323 14.947744813988594
272 47 8 -5.107530847178284 -3.3088104599499504 15.907263646788632
273 47 8 -5.616420193637896 -4.217922368099345 15.098127723082017
274 47 8 -4.688611751553009 -4.865593771132494 14.003741195186135
275 47 8 -3.93454517992386 -5.529149665281735 12.107157786921908
276 47 8 -2.7411156035694972 -4.869588603150385 11.212214343090734
1047 85 5 -4.907989857994543 -0.06386268274602966 11.927302641776892
1012 85 4 -6.276367439595435 -2.247028767384583 5.480300860385699
1026 85 4 -9.606100919313352 -8.216013652991254 9.218766644776633
280 51 8 -6.892592889796136 0.5524351310566451 5.604030570633122
281 51 8 -5.103839418790562 0.2746325745773044 6.001429884935532
1075 85 4 -4.643621796492464 3.2643931649796767 9.187401675435016
1078 85 5 -3.652693965614146 -5.118009863388445 9.910390261815872
284 65 7 -4.9525886618678046 -3.5802432363291397 7.176431691387349
285 65 7 -4.961101129445922 -2.441310542830858 6.005642814666281
1100 85 5 -7.160337932208568 -4.5562361648257586 3.2069608402710315
1099 85 5 -7.81917339650795 -1.3831834247882702 4.4450605953506335
288 71 7 -7.066214897131039 -3.231949325819345 4.362387834502035
289 71 7 -7.8013145974474245 -3.057410685501249 5.715280496351424
290 71 7 -9.320004285030553 -4.393244512862035 4.781678074253751
291 71 7 -10.195704729877058 -4.69786921252183 5.5993460281329055
292 71 7 -9.784941160190138 -2.8130193232125027 5.707368840853541
293 71 7 -11.760796954573902 -3.1988317689634664 5.103221601277046
294 71 7 -12.517504163823023 -4.130970019481048 4.111390357568908
295 7 8 1.0674498059514834 14.21783849918443 5.156722902742005
296 7 8 -0.40491093856512317 13.499067699956758 5.041252693613588
297 7 8 -0.35877490159385794 13.799243194324244 6.579557455901334
298 7 8 -0.8689220797138048 14.924272538542652 6.888017952974627
299 7 8 0.7397465368406246 14.973538180027102 8.518274735348207
300 7 8 0.1248631725252332 13.77650809674901 7.4820397624400625
301 7 8 0.054557866413615964 12.578500181817775 8.945027440489302
302 7 8 0.08092177168418284 13.277355133427365 9.963730210725986
303 7 8 1.0380297600780284 11.825562515188738 10.503896138799083
304 7 8 1.535452797581901 11.64866713788975 9.497710293786549
305 7 8 1.4778478796869319 12.621483464836768 9.180570176831376
306 7 8 0.9058975774545301 11.460427343045286 8.092458562814882
307 7 8 1.9246096511602293 11.386293580257648 7.700985297520302
308 7 8 2.4657982351698267 12.158649678379902 8.944900886266701
309 7 8 3.501456114842867 12.058589100758638 10.297196503522258
310 7 8 4.0125808780876 11.680071305140496 8.935484347874327
311 7 8 2.4532439831480604 10.841076971260621 9.179286620672151
1011 85 5 5.698998880749268 7.641174143438148 5.263752137493872
313 45 8 5.251478835324092 8.092462541847931 8.031405604620497
314 45 8 4.613446669486267 6.847125002548888 9.453022488649985
315 45 8 3.6433122577416936 5.903178693042632 9.672256361047955
316 45 8 3.840198291006919 5.306133526735381 8.323270214631266
317 45 8 3.2293623425903144 4.593274866472965 9.279329883366579
318 45 8 3.5608442671304332 3.587973241342142 9.292803766743194
319 45 8 3.6722914407096865 2.4419070875615527 8.7290831336861
320 45 8 4.358857636387733 1.8845262146129977 7.556795033163442
321 45 8 3.320428518257696 0.5911438075645175 7.456302873364949
322 45 8 2.734855624150115 1.841956095914321 7.7868783332846405
323 45 8 2.5566804406343215 2.828864096843255 7.260548877374746
324 45 8 1.8319366278526075 3.9745644658470907 7.968830155921478
325 45 8 1.4692259338835043 5.65844674753034 8.46908211810537
326 45 8 2.201007419186557 6.135148062904942 9.971557016168198
1064 85 5 -1.1259074690474515 5.307679044199888 5.635291882776244
1088 85 4 -1.385559188655139 1.2519731573760775 5.362457649222926
1114 85 8 -1.5146039108393947 2.244660070415066 7.888257838390878
330 75 8 -0.8716102600543398 1.1954878607118538 6.87779481313076
331 75 7 -0.47130072569101344 2.6444392542742747 7.443908781933548
332 75 7 0.03667762824447614 2.6175857803122953 9.141244225503687
333 75 7 0.5487616352700652 3.9375968025545163 10.296610218531953
334 75 7 -0.39138079429407696 4.643309775188138 11.391521242939342
335 75 7 0.8106444369323276 4.536440881229071 12.896716384274757
336 75 7 -0.622774617265574 3.567039380573271 13.10228918578855
337 75 7 -0.054318746214502465 3.93959634232743 14.360003561564568
338 75 7 0.04702674043450427 5.058032720366391 15.343819287454387
339 75 7 1.4423805133594847 5.8877506365278585 15.806375342506186
340 75 7 1.3631776115998893 6.451521779442775 16.984497830514094
341 75 7 1.4312761289602483 5.478613648728735 18.465861412511003
342 75 7 1.0419767592722418 5.843380049499006 19.644303049687515
343 75 7 0.8694677267339835 6.6367926633666805 19.038016459287313
344 8 8 7.998193332444515 17.67783446535418 -7.687855146991765
345 8 8 8.289599536518322 16.8957119671663 -8.68050808140586
346 8 8 7.1413818715752 16.713448197256962 -7.963218460873529
347 8 8 8.114225433329779 15.609441974934898 -7.683435427552297
348 8 8 6.416049385408643 15.40840025046912 -6.720740038731176
349 8 8 6.94286277149667 15.353851435641197 -7.685180809745578
350 8 8 7.484781437666355 14.063456795064637 -8.442551804469407
351 8 8 6.873238134895692 14.594223208737557 -9.632670540508604
352 8 8 7.325415939499268 15.704855893838195 -10.655325848203786
353 8 8 6.862829920386024 13.778433038441147 -11.57176443005174
354 8 8 7.811339833682202 14.362139705431268 -12.512255226969335
355 8 8 7.426766833160474 13.283694556029403 -12.916663756204988
356 8 8 8.100665259314932 12.19700145541665 -12.633568635577513
357 8 8 7.082702248425261 11.500837201132757 -12.203669962355166
358 8 8 7.881884998250252 11.418653324401594 -14.146897917786209
359 8 8 9.620914020181527 10.760145016508977 -14.416944032413083
1057 85 5 10.181712127202369 10.714713230133203 -12.574705165050409
1048 85 5 10.44419284989755 9.262610773506523 -12.884538347823435
1066 85 4 11.135735272919224 7.894077704615 -9.747491369339905
1051 85 5 15.833891400751687 8.407552920410714 -11.27446113790708
1077 85 5 6.611689770894006 2.0112243667109535 -14.15532830300854
1063 85 4 8.47490212967231 1.115262779700194 -10.896602375136277
366 34 8 7.300445975987817 3.1228615192806215 -11.544886161230382
367 34 8 7.296917764293412 2.669283167717864 -12.50807910645255
368 34 8 7.666682871686055 0.9471690974432863 -13.540433333986543
369 34 8 7.072890735601077 0.31546319694582803 -14.312638668404325
370 34 8 5.7838254837807925 0.805954743409029 -13.824918426230042
1038 85 5 12.028617198818704 8.896717127868083 -16.255803115959246
1035 85 5 13.602365184807768 6.777941681649494 -21.272039771416807
1083 85 4 13.524266067749956 3.769619090413179 -18.351440634670716
374 43 8 11.756172410557785 3.9708351217560445 -17.27719466917002
375 43 8 12.226681069651606 5.3966281591869905 -16.550475939835614
376 43 8 11.508174940682315 5.078287716545908 -17.513218790359332
377 43 8 12.675778422978679 4.487154186174117 -18.483414962630572
378 43 8 12.228201111067754 3.003570354072309 -18.077563494428308
379 43 8 12.899804436456181 2.21052740561276 -18.005900872220973
380 43 7 11.333443070175738 1.4904801383224369 -19.154199016860314
381 43 7 13.296159126862975 0.8091413565201048 -20.21159266659109
382 43 7 12.328293216639725 1.3937184989602334 -21.22402392201974
383 43 7 12.149998798431218 1.0683260616235792 -20.030740093143372
384 43 7 11.98882621523941 -0.8433067959537521 -20.213863013223982
385 43 7 13.319268335353422 -0.7444001646290592 -21.173130990956135
386 43 7 12.509155358660886 1.2468361384671371 -22.31605636040878
387 43 7 13.451482207697387 0.6186716413124337 -22.942819401186263
388 43 7 15.096417110939433 -0.14086300710789282 -22.042188643949665
389 43 7 15.536055572355428 0.6280073924820877 -23.27059625982015
390 43 7 16.96550650342575 0.8550981019462577 -23.15188315336394
391 43 7 18.28196255853554 0.14842628148287731 -24.678798174813725
392 43 7 16.620066057338697 -0.8121423772742549 -23.83751193374345
393 9 8 -3.9726682252329186 -3.3080772831585366 -15.623345303954629
394 9 8 -4.551790147939391 -2.587865186899147 -16.307279914684752
395 9 8 -4.903880781621601 -2.8193570855025363 -14.859596698061779
396 9 8 -6.418318221498407 -3.230548748483164 -13.83391405640716
397 9 8 -7.841535415040624 -3.5905514995343317 -13.224491836612357
398 9 8 -9.27776043369021 -3.5059392378733802 -13.178349790268745
399 9 8 -8.578917992897184 -4.56950288830388 -14.050029488520797
400 9 8 -8.179739639435777 -3.3942876530669492 -14.297518128987143
401 9 8 -8.19357348585658 -1.887108078218553 -14.185514247941827
402 9 8 -7.188044569213477 -1.3334405457346452 -14.333129718314542
403 9 8 -6.533295157236821 -2.131797728142218 -14.182052571062432
404 9 8 -6.166420699907578 -2.0943347777536383 -12.422181562158245
405 9 8 -5.775374326022171 -1.5560197842737806 -11.045077231534139
406 9 8 -6.53601371180642 -0.6687769784324851 -10.615422591153648
407 9 8 -7.6340075788480695 -2.0673539661472105 -10.743024233361806
408 9 8 -8.884176253470416 -1.7506655289166015 -9.862942427186903
1010 85 4 -3.0886695309301353 0.36223477084671546 -10.975941689812432
1022 85 4 -9.143645233448899 2.6792777474409717 -6.474101694299641
1016 85 4 -8.008120351819143 3.766540423450714 -6.351937183028693
1029 85 4 -1.3794925912969074 1.1567507001844255 -4.032065839224929
413 53 8 -6.8957244200068155 -0.5873447189679952 -8.575700337701262
414 53 8 -5.620762692255886 -1.0917759161489593 -9.278202878429655
415 53 8 -4.9369588604699794 -1.27428455664411 -8.104357231741789
416 53 8 -4.38444109584433 0.3722558741158286 -8.188180349624886
1021 85 5 -9.081242076583369 2.6707452602926534 -7.530994780077495
418 32 8 -8.476622819101214 -1.8952205535080684 -7.805966990787791
419 32 8 -7.999233221630761 -2.639550082458122 -7.081329264746383
420 32 8 -8.850122762578387 -2.705300763259784 -6.104567334565275
421 32 8 -9.168095924279068 -1.747604480584221 -6.622285604276331
422 32 8 -10.64872155738004 -2.1409196963367294 -7.277206053101397
423 32 8 -11.96735662582645 -1.569916219449139 -6.7364374440703125
424 32 8 -11.252319577548459 -2.6491591156131684 -5.200413592570738
425 32 8 -9.84811510004098 -3.1107736590180037 -5.521963453720323
426 32 8 -11.945673995945334 -3.3697944827759745 -5.872539748325604
427 32 8 -11.46268441081345 -4.076487425290963 -6.849008284027902
428 32 8 -12.592480730370937 -5.274316507658587 -7.6139051084220934
429 32 7 -13.971026998763584 -7.032764217487322 -7.19502644990491
430 32 7 -13.145458882783846 -6.840972942238986 -6.621372418172678
431 32 7 -12.746067950386633 -5.56631194616637 -5.951905490871148
432 32 7 -12.300448644115072 -7.552480135919761 -5.38989231408401
433 32 7 -13.149415100189964 -8.458452618470163 -4.6800296980586795
434 32 7 -13.55524151304242 -9.42830774497975 -5.682597630765894
435 32 7 -13.398920107674865 -10.195497606504082 -7.474539178788829
436 32 7 -14.105624600776617 -9.153865873193807 -7.895769070863808
437 32 7 -14.390050841793034 -8.027515195591624 -8.874174862787743
438 32 7 -15.956934638377856 -7.049591597192268 -7.361342106694569
439 32 7 -14.82370689990123 -7.976393920543521 -6.796243199886522
440 32 7 -15.457047779791884 -9.00549228799852 -6.686473720004534
441 32 7 -15.873947830165287 -8.38012292883525 -5.91728859230483
442 10 8 -2.8294170687866167 18.984966790399415 1.1854472395699829
443 10 8 -3.6283057941940653 17.589223344759123 1.131663986900128
444 10 8 -3.3184631737189534 17.42905877052882 -0.07706305327120172
445 10 8 -4.238340438673786 17.649334695475186 -1.0335994224331964
446 10 8 -4.220299921287611 16.957921059456165 -0.3202285718173326
447 10 8 -3.3624398527996657 16.209615928125107 -1.3303282474453342
448 10 8 -3.9918479505547704 15.36834795569575 -2.4323156706597073
1082 85 10 -3.050716683961298 15.759870484254087 -3.361995076587571
1093 85 10 -2.945642449355324 14.477628133355296 -3.0475567501831016
451 10 8 -1.5333282835583915 13.737790470102437 -2.7190444259738906
452 10 8 -2.1430296538508116 12.27657400805662 -2.008986434986625
453 10 8 -2.2360327140787715 10.93452417340782 -1.0706813875434347