# Generated from readdy-to-lammps

1005 atoms
718 bonds

10 atom types
1 bond types

-30.0 30.0 xlo xhi
-30.0 30.0 ylo yhi
-30.0 30.0 zlo zhi

Masses

1 1.0
2 1.0
3 1.0
4 1.0
5 1.0
6 1.0
7 1.0
8 1.0
9 1.0
10 1.0

Atoms

1 1 8 -15.596309998391925 -10.79825305307594 -12.284046679657445
2 1 8 -15.214855430281693 -8.63038068960586 -12.414601596339706
3 1 8 -14.980473744808911 -9.438929142891476 -13.457823113116497
4 1 8 -13.455980948484733 -9.636259175950132 -14.252306021137043
5 1 8 -13.00704269426069 -9.578445312928297 -15.228504958984503
6 1 8 -12.307418881974696 -8.04904046452688 -14.19695320490902
7 1 8 -11.893250842141024 -6.755423091470774 -13.745736323993924
8 1 8 -11.18430692649906 -5.684593886690396 -14.229249827920803
9 1 8 -12.151722016743827 -5.954237883032206 -12.6316709750369
10 1 8 -11.714391827429253 -4.549768790522471 -12.185253327757591
11 1 8 -11.19243878221728 -4.124965315831378 -10.917800773616653
12 1 8 -9.750928281290758 -4.982016730721416 -11.187729570256508
13 1 8 -8.972983882836534 -5.783515424871705 -12.433813773958807
14 1 8 -8.650622934322277 -5.2392364694985645 -11.552217350639852
15 1 8 -6.934291808119988 -4.286404725522334 -12.214610725886425
16 1 8 -6.95027395261843 -5.299934170285308 -13.420517058965949
17 1 8 -7.252713985047279 -5.327498457062485 -12.475721126478982
18 1 8 -6.9727413543891075 -6.226825492014821 -11.329978713286595
19 1 8 -7.885810272708421 -7.2563723286802 -11.190104809042673
20 1 8 -8.736277823837035 -8.282781577253038 -9.833237396396681
21 1 8 -9.725557258649358 -9.266532215607306 -9.382598829299312
22 1 8 -9.051757987304503 -8.88694963687442 -8.604305399445268
23 1 8 -7.530327612276056 -8.743979684496328 -7.973587600948578
24 1 8 -7.725996837802328 -9.744540202298529 -7.367385823244656
25 1 8 -6.353102810189127 -8.18624865063143 -7.626454768936343
26 1 8 -7.452275790631538 -6.780302758914069 -7.555369293180453
27 1 8 -6.2455441421172 -7.66221140094041 -6.625128943631139
28 1 8 -5.595020661426729 -7.084434652769168 -5.95332289674176
29 1 8 -4.346139130536251 -7.56744267854904 -7.501866727976244
30 1 8 -3.803564995071932 -7.66285644967875 -9.231978542375971
31 1 8 -3.728680088037066 -5.848739707083735 -9.799701993116534
32 1 8 -4.065148498851008 -6.389275302775595 -10.716590554653251
33 1 8 -2.714297457928536 -5.764085074392101 -9.814021248187638
34 1 8 -1.6581651156421209 -5.951201280990667 -8.92048817358808
35 1 8 -0.0259054004259732 -6.170304757628568 -8.876011221719864
36 1 8 -0.21350704243477828 -7.11560757625278 -9.336811566125002
37 1 7 0.9801286844098892 -6.9683043810411975 -10.776691835555239
38 1 7 -0.45705374619907163 -6.9919268261088785 -11.48573158751281
39 1 7 -1.090751897334344 -6.940215082974607 -10.21056902673228
40 1 7 -2.4228454812550644 -7.1241669560054754 -10.86829960447819
41 1 7 -3.208215654296652 -6.827349788765204 -10.0830455473947
42 1 7 -3.3927749547661894 -6.523279280551804 -11.745266898212531
43 1 7 -4.951016537027841 -6.4175228732449225 -12.204192899945763
44 1 7 -4.517054766735099 -6.82458024101672 -13.432226255044727
45 1 7 -3.3450324390570323 -5.495679843757243 -13.547090123470905
46 1 7 -1.9689915206974562 -5.206820731843129 -14.442432929591043
47 1 7 -0.8815123560140778 -4.333223851947516 -14.467110244085285
48 1 7 -0.740099991305991 -2.7124912353374357 -13.748774825927224
49 1 7 -1.8432390154387315 -1.7627225405071805 -13.72588335423681
50 2 8 0.7829027377741574 -1.8252979965894103 -2.7885189483840196
51 2 8 0.9482718374048085 -1.6449617158446692 -1.6665055471186994
52 2 8 0.7453945319534327 -2.4103391580701943 -0.4223308669480254
53 2 8 1.4341464219561926 -3.39409745664644 -0.4986403647830751
54 2 8 1.6467787579674538 -4.670602212694977 -0.18951362252041487
55 2 8 0.7537356964749224 -5.190333670284005 0.35896826049276115
56 2 8 1.1047946358808824 -5.644480863206883 1.3710117039123078
57 2 8 0.02397195591028109 -5.712488493778169 0.8563561683939226
58 2 8 0.13110665339717908 -5.337696441261884 2.101750494259058
59 2 8 -0.019836696687455347 -5.9341364470327935 3.539297155285257
60 2 8 -0.4656285384333457 -5.091193054451885 4.209711742203147
61 2 8 -1.369549474070988 -4.464895770139548 5.049704709949032
62 2 8 -1.1484041236938731 -3.0678801752459783 5.2732593652226765
1007 36 4 -2.4821103527171613 -4.923648427759922 4.512735537918803
64 27 8 -1.2169101949784973 -4.115407051828963 1.3178783596484136
65 27 8 -0.9364276620633978 -5.3664000282245325 2.2668543798868876
66 27 8 -1.6515282834662177 -4.877214078968329 2.9436859831169393
67 27 8 -3.2189849411920823 -4.933605844320487 2.457537744799066
68 27 8 -2.5944895934452896 -3.287548571302812 2.695475772032699
69 27 8 -2.9116781174876403 -3.4713516900545036 3.819683761391545
70 27 8 -3.4245607077499733 -3.0119191343191574 5.287155814915001
71 27 8 -2.0343332042619573 -1.5823357660794863 4.913696556244298
72 27 8 -1.5678944548034464 -0.08657183330639126 4.537547102617982
1009 36 10 -1.9682584845808813 0.6245708519114564 3.482398466079044
74 27 8 -1.560615162550292 -0.6259892617560165 3.383875785991273
75 27 8 -2.971321228562797 -1.0756511209654647 2.1097140760692272
76 27 8 -3.651569082911056 0.4005545859475065 2.032838458155006
77 27 8 -4.4096859510682345 1.7151756805341667 2.1352489260529257
78 27 8 -5.242625541363742 2.278644965512357 2.420926073547887
79 27 8 -4.431544379551351 0.4674341505894883 2.802774452884494
1017 36 10 -3.4955682429633574 0.8717390640747057 4.347587377426655
81 27 8 -3.370903886697992 2.133762592843777 3.633224495781296
82 27 8 -3.1157368841170454 2.688812176129974 2.776197383200221
83 27 8 -2.467973477610779 3.5679685766225107 3.054379863759801
84 27 8 -1.5034234490724674 3.2648398961250047 2.252408490752934
85 27 8 -1.886643587433785 2.3804920827205267 3.184769368712042
86 27 7 -0.5038067532532323 2.3756956968222864 2.1323117545460306
87 27 7 -0.5041981908604517 0.9649879142256815 2.3955920318222974
88 27 7 -0.28767416500175025 -0.31261347463430245 1.6945432070017155
89 27 7 -0.05820225814872838 -2.1345961324423564 1.8310864503815327
90 27 7 0.8261425860203199 -0.7968431853345903 0.971998828250584
91 27 7 0.49767888560491563 0.4642296605577087 1.0500538531187662
92 27 7 1.4659483939625981 0.44446629718668795 0.22895886524360612
93 27 7 -0.6055633231400058 1.1597654904163277 0.7560162595506108
94 27 7 -1.6478062539878877 0.22142109847074215 0.27068491049940024
95 27 7 -0.7581923965278342 0.41716685410813753 -0.5528192074786081
96 27 7 -1.0857897054914594 -0.5705339776652929 -1.315631194584552
97 27 7 -0.5703787134129118 -1.6043204016165347 -0.6804533106449591
98 27 7 -1.764897691109909 -2.472708364930202 -0.45065355701673465
99 3 8 -0.5198264817326514 -7.994384283656432 -0.6808078405295209
100 3 8 -1.1326505158210471 -7.913479555639596 0.3156625598972988
101 3 8 -2.0397600120091237 -8.053097490995762 2.090823756756968
102 3 8 -1.332258410343627 -7.56246424891191 1.4706008110257416
103 3 8 -2.9545602636146637 -7.268260211172021 2.0083690612834078
104 3 8 -2.727358657542863 -5.973724091074051 2.085028853663744
105 3 8 -3.2308951056512805 -6.873516697647719 0.06016028760306739
106 3 8 -3.1800581757524804 -7.2179303752581765 -1.6930386655778122
107 3 8 -2.7467117409830455 -8.125580576217079 -2.2574507040630096
108 3 8 -4.004810048297357 -7.950978680725756 -2.2572055896460466
109 3 8 -4.095275683071028 -9.919987479905306 -1.3822338410648887
110 3 8 -4.880847532455749 -9.145436390673707 -1.4714035835916235
111 3 8 -5.338546679043683 -10.045162822409571 -0.5763960241511803
112 3 8 -5.319538767872075 -10.976322215854136 0.052487639790739844
113 3 8 -5.690369517206545 -11.039999008461175 1.1555326349464043
1024 36 10 -5.243461267820204 -12.022596541836716 0.1828938364975099
115 3 8 -4.644615227863094 -11.856678005892975 1.3395698420400453
116 3 8 -4.052431838497583 -10.708453012696173 1.4580849083543206
117 3 8 -3.193714985703329 -9.420357303866927 1.8409752711444722
118 3 8 -4.655159273757419 -8.280208017561453 0.48424494163761034
119 3 8 -5.15926826442616 -8.59376197269244 1.5467143644832078
120 3 8 -4.405095263737991 -8.485399499218934 2.532395001538513
121 3 8 -4.152760776649437 -6.749236793113279 2.659818469751435
122 3 8 -4.505405830424389 -7.423754271283508 4.710408930843909
123 3 8 -3.8243073534679426 -8.589090891547388 5.410997474764629
124 3 8 -2.589455352791019 -8.629922825928428 6.3330239207586505
125 3 8 -2.6645076639624214 -7.708669410393462 4.51172039967532
126 3 8 -2.5283713245892034 -8.56156698570769 3.0821915779310993
127 3 8 -2.810778922672767 -10.343498894793246 2.8425971512027437
128 3 8 -3.5330072343144687 -10.868088381726684 3.6101046803745653
129 3 8 -3.5139100237858854 -11.352631799843822 2.3166154028113723
130 3 8 -4.86882440713813 -12.079807612122512 2.69407549436626
131 3 8 -6.314600357363638 -12.683718283616859 3.9917821476780055
132 3 8 -6.942547106472265 -13.619476267180831 3.7145561526837634
133 3 8 -7.079235992369614 -14.947582408686282 2.1772318332403855
134 3 8 -6.550174899422825 -14.762562821212748 1.1107571655966049
1025 36 9 -4.914239226127097 -14.505133267905645 1.6528738654811141
136 3 7 -4.989661831317759 -15.994990927823128 2.096522016006111
137 3 7 -5.289303432873872 -16.635852648718124 0.6911385342785521
138 3 7 -6.331663869987693 -17.070484919668885 0.20605713344449508
139 3 7 -4.470220930375702 -17.31569532752615 -1.3750054726705563
140 3 7 -4.259280562518871 -16.022100395675807 -0.9379712817093736
141 3 7 -2.90241830300541 -16.07577620265353 0.20011572049914572
142 3 7 -2.1302169559383053 -15.095991567409344 0.9731368556740077
143 3 7 -3.5562566360981758 -15.552490840944465 2.2645916836057687
144 3 7 -2.642501767403297 -13.889525333795484 2.8202043442376343
145 3 7 -4.31707024948114 -14.412011901378625 3.281789950165285
146 3 7 -3.7777740596049805 -13.111017330306574 3.5101966789318997
147 3 7 -3.7727228404720403 -12.151085686678877 4.5994273509501635
148 4 8 -0.6264667523426961 10.49668089817031 15.425409396551112
149 4 8 -1.3449318464484532 11.864685049526917 16.426196907429798
150 4 8 -0.4590261581190526 11.146846843639155 18.72552122684144
151 4 8 -1.5071599349816365 10.598571031887758 18.44544224450297
152 4 8 -0.8975675927415994 9.89578003109464 17.77694290452102
153 4 8 -1.9857403041710278 10.26287812040649 17.050453777371555
154 4 8 -2.5008981011357267 11.11026577937305 17.50422457037163
155 4 8 -2.909034149870809 9.946921442863601 18.295898063482742
156 4 8 -2.763412613368973 8.566895397156847 16.885371460560687
157 4 8 -3.260681112970601 7.674427464841073 17.157223914316987
158 4 8 -4.855525042596964 6.892195246607203 16.175473057625446
159 4 8 -3.052231953422562 6.5528054803087485 16.87947110487967
160 4 8 -3.2793090389767263 6.575428609935452 18.688101174768953
161 4 8 -2.086708027752762 6.049711982317676 19.585830787799416
162 4 8 -2.4617004813783967 6.823458665807544 20.89206904827295
163 4 8 -3.644805616688676 6.080827593092577 21.752635828462374
164 4 8 -4.797502446517604 5.802183488174812 22.819108895993885
165 4 8 -5.5782639455970475 6.715448864136071 21.546720735737253
166 4 8 -5.258632699957247 7.859829408589525 21.481620277768076
167 4 8 -4.739341077025234 8.203569495151742 22.728142086691754
168 4 8 -6.051533049537293 6.807056929509883 22.388931794143975
169 4 8 -5.249927501709729 7.184963266356954 23.80366110663502
170 4 8 -5.771262817811713 6.0475580443652595 24.49132404683339
171 4 8 -5.730352699235065 4.77297256291932 25.963973625728908
172 4 8 -5.200902996089357 4.44305587557017 24.388157742524108
173 4 8 -4.295847767059096 4.054559578314407 25.358822673637516
174 4 8 -3.7980653836128955 2.5419408647744377 25.61866730013812
175 4 8 -3.485323981927719 0.9628828134451681 24.990805486442515
176 4 8 -3.6094141925832073 -0.48982861853292065 24.59085063298929
177 4 8 -4.088320180290052 -1.1153344856318412 25.418734953874942
178 4 8 -3.0938424371113453 -0.49928646738623833 26.2416930899247
179 4 8 -3.865168738826346 0.4107524350237201 26.596644487328994
180 4 8 -4.748841041112562 0.16943755974833025 28.485147319649823
181 4 8 -4.021991743307003 -0.1396827490065229 27.428073232803794
182 4 8 -2.66052722346324 -0.25018765147248606 27.667405040579148
183 4 8 -0.8419220950170673 -0.5413770023240695 27.893352055568336
184 4 7 -0.14459858277768176 -0.5457461110818909 27.127406869039795
185 4 7 1.2405345353216342 -0.9740784434484596 27.332280626070137
1023 36 9 1.0312721712691217 -2.1901191496656978 26.486209131418594
187 4 7 -0.695910434131288 -1.4624931133307535 26.232600433487395
188 4 7 -1.197102867415952 -3.0831596154541545 25.61008859453797
189 4 7 -1.7048227951493389 -2.967548548823567 24.568993502586576
190 4 7 -2.1585034066033 -2.0543041147688537 23.730786182787444
191 4 7 -1.3293479715390115 -3.3174312479369754 22.551880511288992
192 4 7 -1.6788742187837005 -4.211136916579085 21.9931822381383
193 4 7 -1.4248021855783186 -5.496867355027468 21.446626766923387
194 4 7 -1.398601240277969 -4.831404663860402 22.77973184502961
195 4 7 -2.3912938920342035 -6.140508319727505 22.06036072977841
196 4 7 -1.0098627935677436 -6.756634628753807 23.231377374944376
197 5 8 0.5615030311008997 -4.504798002061776 13.691902933444176
198 5 8 -0.5669913661402102 -4.947329934922955 13.432919963054792
199 5 8 -1.3275817107941827 -4.061216302257589 14.307281634693172
200 5 8 0.19684775664395954 -3.6207063514610165 13.98268073532537
201 5 8 2.018605803418906 -4.408276053150294 14.423928750825306
202 5 8 1.918852341935134 -5.078163749177625 15.27289578929673
203 5 8 2.9905426354195423 -4.643505808128297 15.324534354439958
204 5 8 3.327139244186914 -3.9183482220150228 16.670074702901694
205 5 8 3.243483544236967 -2.8893816255616427 17.081767323884105
206 5 8 3.305313769888729 -1.2114245231574063 17.144708531818093
207 5 8 4.0733527377614385 -1.4286483261371317 16.00420701434726
208 5 8 5.370634830200733 -1.9571800572768487 16.556855497262873
209 5 8 5.185203745313196 -2.468113085633518 15.505437587767645
210 5 8 6.287189381141462 -3.852947433639496 15.540251420377935
211 5 8 6.352225841948396 -2.0629171924671597 14.783142653368875
212 5 8 7.123528414242278 -3.3448335528910627 14.471423827177823
213 5 8 6.6673271827328175 -0.959437259888301 13.903298609275245
214 5 8 6.4409691661684665 -0.16767293284649035 13.011422946560101
215 5 8 6.727587947257878 0.44977351089775075 12.075870462756505
1019 36 10 7.8153047174278525 1.4276483368173079 11.712112439725045
217 5 8 6.532797437046645 1.6675213906684627 11.328145789527538
218 5 8 7.201084010407084 0.8247110928352439 10.332785968383485
219 5 8 8.12831669496784 1.9687638031590968 9.716049181500683
220 5 8 7.624261982024073 1.067335784061907 8.048866928101017
221 5 8 8.21922291682099 -0.8463253600068238 8.100086673573118
222 5 8 7.400590377353142 -1.0396181761853815 9.012272165288307
223 5 8 6.810641132055839 0.36131023990595845 8.674770712741966
224 5 8 6.776278759737463 -0.3131361949036912 7.283882650233609
225 5 8 7.729623238687981 0.47772178063112686 7.285608147954092
226 5 8 8.646107422556494 0.6259020010741883 4.5279073665887575
227 5 8 7.525024341180245 2.286243022482575 4.124144931294926
228 5 8 8.20787066581207 3.0242991711537557 3.4119206152472086
229 5 8 8.271790700394444 1.5700712933438525 4.072152185975146
230 5 8 9.35090311896167 1.5464462696492287 4.54210330421288
231 5 8 9.333293393877618 -0.7065092828523399 3.631342310871514
232 5 8 7.633457993072142 -1.0199768550057748 2.801553365350198
233 5 7 9.419702770746897 -0.9358150318887649 2.5082317723772536
234 5 7 9.675390002565777 -2.3767920246640446 1.8556593805430441
235 5 7 7.695524436011345 -3.2933866611246474 1.1654713231750173
236 5 7 8.044327980758222 -4.8719785637319735 0.7206565520863862
237 5 7 8.625268580542128 -4.242324412232565 1.606240883014344
238 5 7 7.34742063510589 -4.111331493495261 1.9951479080129018
239 5 7 6.408873175411615 -4.2404125905258825 0.8488190041654032
240 5 7 5.469205089091592 -3.9683793340142803 2.3461005030486906
241 5 7 6.002596889421582 -2.801784491509929 1.4565757167543516
242 5 7 5.828310993921456 -3.27957885710963 3.762523996716909
243 5 7 6.92780820138248 -3.1371999879875188 4.597403268716542
244 5 7 6.971075862999514 -1.690401555347103 3.7320667597612385
245 5 7 5.8397419768454 -1.5029158576295447 4.106237578536651
246 6 8 -0.8007949046232312 2.350927273339628 4.828137827471857
247 6 8 -2.01281969102712 2.9480409854978036 4.949046369709984
248 6 8 -2.9524263072975474 3.8929462611022676 5.395630917621138
249 6 8 -3.2753825608229192 3.865130083372044 3.9001329150013095
250 6 8 -2.676485649601611 5.24946429842486 3.0719863722390004
251 6 8 -1.4663591188308138 4.645543811751396 4.251473175570726
252 6 8 -1.0662227693221624 2.9998364911781374 3.4209704565052266
253 6 8 -0.6016542973401401 4.513749071708272 4.778619909609808
254 6 8 -0.5088639437010368 3.804334645349038 6.497006790994317
255 6 8 -2.3003492823720784 3.281711985622026 6.941530815041415
256 6 8 -3.6288577585524155 4.275716409923424 7.325775812786288
257 6 8 -3.175601943784471 5.85654078732913 6.831256921012063
258 6 8 -2.64230158564324 5.475265826891253 8.170137897262796
259 6 8 -3.753073199620601 6.02795290718987 7.647816369821544
260 6 8 -5.4681049823927825 4.955443736657184 8.976248234638181
261 6 8 -4.725501265155348 5.417572754765117 8.353205713563208
262 6 8 -3.677315735067556 4.988450799981728 9.370452017629345
263 6 8 -2.447607918999966 4.001034798189146 10.410239026010272
264 6 8 -3.005962047004014 3.3055222357056135 9.822183704150351
265 6 8 -2.9478251179969406 2.065548231803177 8.663495101741821
266 6 8 -2.0062824307378513 1.9463978031403903 10.27563720900723
267 6 8 -2.4879982971089953 0.8354251048889992 10.218378038911007
268 6 8 -3.6357048600882798 0.7290564246416968 11.558510511858506
269 6 8 -3.2195117943942066 0.1413688624724185 10.750599268738684
270 6 8 -2.9640350025036244 -0.4249157171389698 11.863169390536681
271 6 8 -3.0932406632746687 -1.4583877372228915 12.246930884348458
272 6 8 -2.684765071088855 -3.020225256851497 12.603120335639781
273 6 8 -4.142109524648815 -3.7937900439502457 12.98393835776476
274 6 8 -4.098944193414056 -4.1870718458139855 11.920037477910078
275 6 8 -3.3842948738691683 -3.2166561485762926 10.544044770772775
276 6 8 -4.320289591553966 -3.010716913545433 9.633880487151366
277 6 8 -3.233018837343198 -3.0020599163997947 9.08692218565533
1012 36 10 -4.04537119297483 -2.1250616598860246 7.793622248638911
279 6 8 -4.457234345625363 -1.181444325105305 7.345506346541906
280 6 8 -5.188843671185552 -2.378179049819155 7.1813058585381855
281 6 8 -5.574583252252462 -3.2693200364541566 8.128542617013496
282 6 7 -5.173891099949695 -3.8650898380429113 7.155935084803237
283 6 7 -4.161860509027112 -4.087063876820912 7.442954195553371
284 6 7 -5.254160073199823 -3.7536705557274277 5.928448800800101
285 6 7 -6.668493530288666 -2.9188690665785897 6.217530014775622
286 6 7 -6.770706303087916 -4.365503535690987 6.852944733543038
287 6 7 -5.975384435538495 -5.322335286850234 6.5163071061759155
288 6 7 -5.902378484919957 -4.427927389590059 5.221169573471976
289 6 7 -7.47767521440151 -5.344639358752617 6.051427025920413
290 6 7 -9.185487392409684 -6.446471647015664 5.735133572480547
291 6 7 -8.272794569156568 -5.7832994669219815 4.594368690706947
292 6 7 -9.36957957680847 -5.160961346649257 5.497045086597754
293 6 7 -8.604321299891822 -3.9116291055451216 5.397501870641459
294 6 7 -7.972372215340441 -4.003047036038122 4.081305273967433
295 7 8 3.4390478065844423 13.503298463526551 6.32082234468726
296 7 8 4.386789973080503 13.45627992433232 8.056573295871894
297 7 8 3.06989911985391 13.104835290352662 8.852138732857247
298 7 8 2.049086048722628 13.339752809471088 8.541122493276584
299 7 8 1.0969007561572908 12.391480905267585 7.728082293303736
300 7 8 1.2916117988395492 12.861214103733362 6.8687415899234106
301 7 8 1.0699863294444634 13.82167305512279 8.588277492073004
302 7 8 1.9144128406019711 14.576488008250795 9.735084254533717
303 7 8 1.2226549031921505 14.700495503091805 11.217855894640614
304 7 8 -0.5236532881755962 14.397410842206158 10.927171069998254
305 7 8 0.6434732065865866 13.131917046533 12.2034751831687
306 7 8 1.1544948794543202 12.113354197469187 11.07820961694184
307 7 8 1.6554617740792235 11.027712048661932 11.431689866425241
308 7 8 3.1657364529737357 10.799015830649568 11.353949036232974
309 7 8 3.5088154533835656 9.696259437179313 11.2684386183997
310 7 8 3.6805387086134185 9.770001826893218 9.784202193312854
311 7 8 4.815831552313074 10.086560500671425 7.867827859715993
1011 36 10 4.967482898347681 8.609730107745836 8.50945814077732
313 7 8 4.140001841907504 8.137304300038725 8.977618461640384
314 7 8 3.70606228779497 7.955385506333453 8.005060226009986
315 7 8 2.9972478125135003 7.604334954308878 9.33193019269486
316 7 8 3.176178201742238 6.5822327404019205 9.956669790080335
317 7 8 3.029124908429906 5.751819295441281 8.73135691352602
318 7 8 2.902789787431384 3.71118820607949 7.820877092941835
319 7 8 1.8424955117739978 3.6328001769003917 6.124593347799916
320 7 8 2.243267539274087 2.4560304751910724 5.552155353656839
321 7 8 2.603845376242621 1.2579605227727562 5.872925653181097
322 7 8 0.9641563324828216 1.3566877056649684 6.364005785899576
323 7 8 0.3362342247966317 2.259821889500426 6.605376285207814
324 7 8 1.1209046427947085 2.812776517871089 6.161505117085286
325 7 8 0.5391836283671348 3.4288825963032172 7.695638500141282
326 7 8 1.1492193264989226 4.170510331270429 8.586875897395723
327 7 8 0.6602773587173412 5.4787913663370205 9.785122524944807
328 7 8 -0.5235664623788574 4.582000038476457 9.62307265829781
329 7 8 -0.5557022996529347 2.5535144015925773 9.233884885974916
330 7 8 0.6107347866179521 2.7742735961259433 9.641970035477812
331 7 7 0.12015217257595438 2.0241433975559837 10.422743288265941
332 7 7 0.28571674025222693 0.9260032392816964 9.791225870686857
333 7 7 -0.8798864060475318 0.4320071275364614 10.709676254682142
334 7 7 0.22515388492968202 1.058979872023659 11.964485313277944
335 7 7 0.05347410087437978 2.1199282064268905 13.07489921453612
336 7 7 1.6931895139285893 1.979379412483529 13.297905451845295
337 7 7 1.355936860731592 3.3966732983796275 13.041955952965935
338 7 7 1.7421107765836574 4.529215052906372 12.453414266556823
339 7 7 0.5220668326047403 4.9524907821727995 13.191503747123457
340 7 7 0.4312011227181378 3.741746046839283 14.889029361254869
341 7 7 1.6760615140692556 4.906603156272807 16.129714483775395
342 7 7 1.9497684598446345 6.136877096378595 17.020194181214656
343 7 7 2.7554850599860834 5.365949941317683 17.480632454747116
344 8 8 6.81437344234138 18.656303124968744 -9.725414689082525
345 8 8 5.675477310775641 18.322392852123258 -8.63872419352843
346 8 8 5.725594682846008 17.090522728375174 -7.200802229478714
347 8 8 5.539441862567704 16.29749811164141 -8.362749520002458
348 8 8 6.552519108356075 17.593179814995256 -9.12726439475941
349 8 8 7.403262214722616 17.112335246491693 -9.508775325999517
350 8 8 7.796524769071663 15.987431525343176 -8.585709235636623
351 8 8 6.900763650383769 15.692011397508626 -9.666317570849431
352 8 8 6.145873691025719 17.38077464439864 -10.147234802565654
353 8 8 5.97163295668751 15.6519548596044 -11.639721879770558
354 8 8 6.942827314703264 15.01489207758942 -11.487499532593935
355 8 8 7.361626829522646 13.700556158573638 -11.185843576864194
356 8 8 7.0466959713786315 14.520722831059535 -13.01490264393575
357 8 8 7.741090070985943 14.07107450204248 -12.268762456518305
358 8 8 8.203809939436582 12.453744700711656 -11.63292316070693
359 8 8 9.370458861199054 11.58703999066744 -10.674192102731864
360 8 8 10.76183791599581 10.982513123031802 -11.344472192933969
361 8 8 10.501182843540741 9.459161360931537 -11.429097096021993
362 8 8 12.19088556490009 8.759171377015207 -11.754787041499393
363 8 8 11.511344790480095 8.45055890618092 -12.929634855299541
364 8 8 11.662188132680306 7.32643761633162 -13.542308336125569
365 8 8 10.04779164000519 5.812680510936494 -12.690407474031467
366 8 8 10.55647268808275 5.129154372145244 -13.347955961394561
367 8 8 8.285266282083713 3.9304000894867905 -13.347878842352653
368 8 8 8.199359162345282 3.6466442587171026 -14.943423140304873
369 8 8 7.563097461541441 5.120259642533633 -13.789934482919582
370 8 8 7.822292006054262 4.941250861900505 -15.561819125242053
371 8 8 9.304359084601066 6.042066487304451 -16.592396305738802
372 8 8 10.466135001349135 5.336572384745332 -16.378129274367147
373 8 8 11.54683974958583 4.609602274290672 -16.03487932860678
374 8 8 12.263286789076627 3.6168087488855853 -17.125791350377558
375 8 8 12.417294338303975 2.26854428552164 -17.1660142440645
376 8 8 12.711052517778757 3.3579117662273408 -18.26239595005997
377 8 8 12.00205481617547 4.07457894543642 -19.818853168456435
378 8 8 11.379002802900494 2.7834626224114807 -19.668904804596725
379 8 8 12.820568047977089 2.165844559940643 -18.867243466765466
380 8 7 14.272127107127366 1.0833749073996637 -18.8853215275111
381 8 7 13.055061156874785 0.3668333293300039 -18.225982488959826
382 8 7 12.46043499496881 -0.6767765460903923 -18.208513571986348
383 8 7 13.648327620680744 -0.4325183539057203 -19.465660414089683
384 8 7 14.316318270687717 -1.1033454912751743 -19.81620524564926
385 8 7 14.63483009334634 -0.837257975242428 -21.48393824840539
386 8 7 14.417000223141676 -0.601076782664 -22.934077647586214
387 8 7 15.200886666182043 0.2829864792005767 -22.49566248670835
388 8 7 15.541724153311437 -0.8247018481628694 -20.83772094541703
389 8 7 16.547582555404272 -1.3471805205601732 -21.70830840396974
390 8 7 16.95860601966391 -0.6392381436818002 -21.086133507439495
391 8 7 16.79386323122352 0.7790188656698748 -20.328295991453512
392 8 7 16.442572531002984 1.1232926475313199 -19.220143401167732
393 9 8 -4.624180598600128 -4.4580239971065785 -16.12953040966028
394 9 8 -5.103305695132633 -5.038394674221046 -14.295801161868253
395 9 8 -6.54645865940392 -4.05967178925431 -14.321713812015263
396 9 8 -5.504999709697752 -3.708267371022683 -14.413365955537547
397 9 8 -6.363540265021715 -2.7149409381909977 -14.017852413345947
398 9 8 -8.672083633619646 -3.100715619229759 -14.140782201637164
399 9 8 -8.516066573711258 -2.3174707076671863 -13.229718525034892
400 9 8 -7.689617209867538 -1.7594096773264551 -13.402977743594539
401 9 8 -6.6929073930075385 -1.4914298241363833 -12.62491233264324
402 9 8 -6.903002761244436 -0.46808051132266015 -13.660405178293162
403 9 8 -5.193909412430647 -0.8539402582622361 -13.35853196166552
404 9 8 -5.822243019979033 0.011109164396753567 -11.94800807740135
405 9 8 -5.6905031851343 1.7210064137528107 -11.355303821347752
406 9 8 -6.585401228407568 1.1953861622666488 -11.538368745729729
407 9 8 -7.142739745996606 2.1692346191929155 -10.686004320096291
408 9 8 -7.042998544658723 2.300297959605411 -9.249517882122321
1010 36 8 -5.874310259821165 1.557047452635834 -9.307488796596894
1022 36 10 -6.018695370257699 0.9775081755608106 -8.249342936008944
1016 36 8 -4.863860799446326 1.2428627103863623 -7.998764922390068
412 31 8 -4.989575482370844 -0.08843825711150541 -7.4933507270621496
413 31 8 -3.7953724073939448 -0.7553981285369975 -7.946955541284033
414 31 8 -5.250514561772272 -1.8492771477717354 -8.069267677121609
415 31 8 -6.75469562019305 -0.9838971138889534 -7.805245851920296
416 31 8 -7.0265303109371615 -0.7281373735526154 -6.499684563363691
1021 36 8 -6.823373493013463 0.95561541262561 -6.437539278748298
418 33 8 -7.743105726317893 0.15037623048630194 -6.692025166779733
419 33 8 -8.689091815711212 -0.3489762111703774 -6.072615367086545
420 33 8 -9.736041145763393 -1.2153305326471757 -5.625860746849861
421 33 8 -10.930437532276697 -1.2818764294387701 -5.347881878242416
422 33 8 -11.900848651930064 -1.6194405642180127 -5.683032388880519
423 33 8 -10.927929940896314 -2.9530892732930205 -5.35395958813661
424 33 8 -11.195532830387991 -4.138797732025504 -6.165459497938372
425 33 8 -11.703030848989012 -4.32450770386903 -7.764175588989317
426 33 8 -11.520042097801552 -5.184645850013027 -6.974579909478481
427 33 8 -12.029626376650045 -6.452824939113984 -8.127640715418897
428 33 8 -12.928720819058807 -5.288806076114621 -7.487693983088243
429 33 7 -12.392212431136615 -5.486836247249305 -8.595770648948903
430 33 7 -12.953789568016777 -4.419448672641363 -9.201797618218562
431 33 7 -13.807560344037551 -4.580556187534127 -7.386131511806566
432 33 7 -14.35179408020021 -5.325988078031248 -5.346181405484488
433 33 7 -14.224336538865455 -6.688200913091156 -5.351603629791958
434 33 7 -14.738439258036042 -7.722071346711784 -5.671899057589017
435 33 7 -13.367945398308747 -7.880997270097339 -6.366419909218153
436 33 7 -14.449985148943139 -7.332249948922757 -7.163336539881209
437 33 7 -14.548196240695598 -8.325800194709409 -8.353342915126207
438 33 7 -16.187513757641142 -7.304572430556825 -8.324165954900407
439 33 7 -17.479167106812138 -7.878738269958501 -6.728114934353556
440 33 7 -16.391590418165524 -8.111360454439438 -6.1763843605280115
441 33 7 -16.080618322308656 -7.167262521122811 -5.896978720048901
442 10 8 0.1439184977337009 15.70107635666944 -0.6938860445286208
443 10 8 -0.785600076314558 16.509633073428397 -0.5241371801202301
444 10 8 0.11924778440412885 16.893188709347882 -1.1409472876695064
445 10 8 -1.9174827621327295 16.455507286947835 -0.2756584205689615
446 10 8 -2.049798396959733 14.759552367394067 -0.5468333879340973
447 10 8 -2.5686866313182852 14.351529636328067 -1.9621893464588325
448 10 8 -3.7957937475825987 14.844009606495167 -0.8105873796760059
449 10 8 -3.138832296842733 13.84500353501277 -0.4255903281720785
450 10 8 -2.747707659496914 11.968764431360668 -1.3923926566356357
451 10 8 -1.9446644135934206 12.406252673879997 -2.16369649736354
452 10 8 -2.61792608986282 11.797023986684797 -3.2206264002556995
453 10 8 -2.7741400472637467 10.630568970817528 -2.55315883622437
454 10 8 -3.5910662988442414 10.479259155853546 -1.740483143681376
455 10 8 -2.762649775799541 10.634425139575335 -1.092139765756979
1015 36 10 -1.661826281574837 9.037180767614473 -0.8920225199610163
457 10 8 -2.0793987074268907 9.04954509403795 -2.3302092594468062
458 10 8 -1.1562614748110982 9.950518659668823 -2.6960134035706593