# Generated from readdy-to-lammps

1005 atoms
730 bonds

10 atom types
1 bond types

-30.0 30.0 xlo xhi
-30.0 30.0 ylo yhi
-30.0 30.0 zlo zhi

Masses

1 1.0
2 1.0
3 1.0
4 1.0
5 1.0
6 1.0
7 1.0
8 1.0
9 1.0
10 1.0

Atoms

1 1 8 -15.121720223563786 -9.036134613336458 -11.986414129373662
2 1 8 -15.844879539402337 -9.002077021893728 -12.98210423944451
3 1 8 -15.33014923964662 -8.270916898625474 -14.616292915617693
4 1 8 -14.418566074157017 -8.80377958097983 -14.554943515201353
5 1 8 -13.321789010103313 -8.844538806577004 -13.783368408515843
6 1 8 -11.79323416108124 -7.426328502145211 -14.41892336069597
7 1 8 -12.32244523153789 -6.137410261326407 -14.219573495384582
8 1 8 -11.31539360161411 -5.5147438455570965 -12.945552172706607
9 1 8 -12.226750883069966 -5.528184467400046 -11.989626610221407
10 1 8 -12.67608620208269 -4.4808020718549475 -11.427819276301015
11 1 8 -11.631464044966908 -5.0536568540539895 -10.694265228613624
12 1 8 -10.55643747516367 -4.158428448598931 -11.233277190906241
13 1 8 -9.818636748747064 -5.13136173423765 -11.201341801025103
14 1 8 -9.155168344466261 -5.566768323147353 -12.029724057747787
15 1 8 -8.520120657408217 -6.188838153138884 -12.961115814791475
16 1 8 -6.875794281829045 -7.456970533208578 -12.73245642068622
17 1 8 -6.151458590596031 -6.6038836362079945 -11.983012015661036
18 1 8 -8.304222552083248 -6.816003402779318 -11.890311986183464
19 1 8 -8.311161999271144 -7.959289004512856 -10.840208340290339
20 1 8 -9.219502294241765 -8.036500460343717 -9.625857908751549
21 1 8 -9.197654638081804 -9.509162315289272 -9.726786900822814
22 1 8 -7.971609860498142 -8.976063798204882 -10.183310468666361
23 1 8 -7.1427166721873565 -8.671203923985878 -8.897092915047603
24 1 8 -6.883099625991492 -8.122033042584414 -7.075049108933848
25 1 8 -7.116591600441083 -7.57285173380615 -6.174322434506755
26 1 8 -5.602518976223476 -6.975014259773845 -7.310399214048338
27 1 8 -6.213131106092552 -6.32967261833811 -6.410807844082022
28 1 8 -4.284305042543057 -6.046636700268997 -6.890127147690884
29 1 8 -3.9654305955361107 -6.621549372949796 -8.365638649029876
30 1 8 -4.878080490934701 -6.860261957407773 -9.788513154812778
31 1 8 -3.6256687483673926 -6.82120229762702 -9.410732706762081
32 1 8 -3.6631864249795116 -5.265323409152149 -9.748794482531327
33 1 8 -2.0677214907868895 -5.970835852646474 -8.902990218843158
34 1 8 -1.9855860868850546 -5.569305108718549 -7.808413885589426
35 1 8 -1.1738061429291373 -6.217119929564337 -8.191856272649227
36 1 8 -0.6133900379754934 -7.384712608755614 -9.375419800038518
37 1 7 -0.6386953503693348 -8.234927118858394 -10.900964587184866
38 1 7 -0.7711350804382084 -7.964908464704307 -12.133788559207636
39 1 7 -1.7609904945468777 -7.975757081027649 -11.486523829508243
40 1 7 -2.665274871723164 -6.778176487012303 -11.793864902055038
41 1 7 -2.5726001882541647 -6.566368402069304 -10.65433970584434
42 1 7 -2.9575857066714826 -5.426359326958476 -11.004948328686998
43 1 7 -3.7856013006372837 -4.711598828882604 -12.34227620234184
44 1 7 -4.459273457539471 -6.207908998595252 -13.539454342731359
45 1 7 -3.468758976767281 -6.091631174851752 -14.059170814749057
46 1 7 -2.518950203589827 -5.067757761376564 -13.680374965003589
47 1 7 -1.3953116338540823 -4.236727321491849 -14.243903773270672
48 1 7 -0.6238326686593948 -3.2849553360358112 -13.665770586691949
49 1 7 -1.3152712904845754 -2.757520955130831 -14.590118211657279
50 2 8 3.706995054837226 -1.3665619587455917 -2.8323937373133448
51 2 8 2.6726956211939723 -2.408491626911987 -2.853844358453026
52 2 8 2.013101523073318 -2.614623800813484 -1.691214076173057
53 2 8 1.32276003703978 -2.8479331972382895 -0.3462767816911424
54 2 8 0.8454571630731006 -3.9367211449419934 0.09915824118915749
55 2 8 0.4949033326509926 -5.015629074408114 0.6128025802753665
56 2 8 0.9737349920917853 -6.088079382352908 0.6856426398074285
57 2 8 -0.18717339571841757 -7.215845916368641 0.5872463181394509
58 2 8 -0.5925631973557897 -6.227489496245623 2.0401647230366167
59 2 8 -1.471998252496587 -5.629677849288762 2.339635072223027
60 2 8 -1.0546068606014507 -5.241760399177782 3.4378001009531176
61 2 8 -2.1853535319871757 -5.038929907676707 4.816587262588153
62 2 8 -1.27912215414435 -3.6298058822665245 4.622677979069404
1007 26 10 -1.9002472075645174 -2.632384652673938 4.288942354744575
64 2 8 -1.9634241966657862 -3.173999644487332 3.338100689970697
65 2 8 -2.0062997358622296 -4.182576657183788 3.1843033150664524
66 2 8 -2.511369740683411 -5.904113732717551 2.678268621097132
67 2 8 -3.592263465377727 -4.707213666852268 2.865498894746803
68 2 8 -3.2045068375664325 -3.6275237894267622 3.954445067038711
69 2 8 -4.433201170329192 -2.8961706745331206 4.079712005572901
70 2 8 -2.910047095813436 -2.641956027022376 3.346152309539995
71 2 8 -3.0213739336526815 -1.6899751292039804 4.307198088915753
72 2 8 -2.853481871831194 -0.39999053809621354 4.461909382730082
73 2 8 -2.0436494652507338 -1.1395084217454294 3.731564973344432
74 2 8 -2.5749491218066556 -0.6144302002880767 2.768226819262341
75 2 8 -2.2989329764714768 0.3639906536064259 1.5580243724451792
76 2 8 -3.3452339853230204 1.3643726449295928 1.248985243024545
77 2 8 -3.887363774521974 2.125314223481727 1.7733412580603531
78 2 8 -5.262628467647503 1.3926497855578956 2.9046056487288916
79 2 8 -4.360141593397288 0.9570856267668105 3.9115706828271906
80 2 8 -3.835684981851773 0.06261811474956601 4.603540737202348
81 2 8 -3.3480105917333485 0.2407564190169297 3.081909816022752
82 2 8 -3.8356653935200757 1.8767485610624455 3.6881849441435643
83 2 8 -2.6715298761334805 2.171142168299815 3.0533061546666196
84 2 8 -2.386403885020193 1.1813932576128519 3.0775046322600277
85 2 8 -2.832666990567259 0.89283076660178 4.6792900742815435
86 2 7 -1.4570619044725968 1.274099451011705 3.5323273800552633
87 2 7 0.01223576248349677 0.5600062037209109 2.855924004223164
88 2 7 -0.5216724637909456 -0.52081677589493 2.412709145086801
89 2 7 -0.018823570774952433 -0.9629619678014876 3.2819575878681366
90 2 7 0.6520169170554665 -1.5910049691402477 1.860401081491956
91 2 7 0.3910654273426681 0.056583578921284655 1.0066902994043994
92 2 7 0.5002278551088541 0.5114131630620864 0.07061974144916028
93 2 7 -0.6927474285984616 0.4809422892472068 0.10435125492117565
94 2 7 -1.7575401522129297 1.295780400065248 -0.07762708969855704
95 2 7 -1.480821894140947 -0.2328450382831603 -0.42521955121437854
96 2 7 -2.349044837040817 -0.010173891959978167 -0.05269871715361494
97 2 7 -2.0791697514600136 -1.2308995021223024 -0.2209122434858125
98 2 7 -0.9710374586578029 -2.1990370770211083 -0.18112165062056215
99 3 8 -2.822706257974585 -7.610884284538993 -0.017894418966587704
100 3 8 -1.6725256953311554 -7.6559626416041135 -0.42345286902753204
101 3 8 -2.402081662166945 -7.688380616048467 1.2690672918061452
102 3 8 -3.295065069636748 -6.850695449031905 2.5738062222720153
103 3 8 -3.789249903330139 -6.99057736116326 1.6658579448978592
104 3 8 -3.8769212755206257 -7.948199993704063 1.1256082423896274
105 3 8 -3.9166622264911526 -7.351732719562642 -0.9008872724473044
106 3 8 -4.140185512094193 -6.745866487879178 -1.8148330986468453
107 3 8 -3.2954826463077977 -7.557957326901198 -1.6874889651896274
108 3 8 -3.6776599122711193 -8.702263828482394 -1.5649326458534898
109 3 8 -2.6318600514739647 -9.349966092254434 -2.3744757201021933
110 3 8 -3.7017181084265265 -10.078374871027192 -1.6956349100564676
111 3 8 -4.153243738011677 -9.601923453539982 -0.5490977090565853
112 3 8 -3.6073858927575344 -10.156617928348535 0.24011824003643387
113 3 8 -4.242991446185707 -10.730760867753158 -0.6937848354070545
114 3 8 -4.313453850580006 -11.975414306794843 -0.7056804970038786
115 3 8 -4.65336036786321 -10.740603480025658 0.3437510040383828
116 3 8 -5.462997690054616 -10.517893574780773 1.083263962820369
117 3 8 -3.887351868156521 -9.09223783275825 1.0198653057096405
118 3 8 -4.6959297317337665 -8.641765122421923 1.3670718610614518
119 3 8 -5.662573472243848 -8.206750446999225 1.7692247631862865
120 3 8 -4.278175112153415 -8.479012195995843 2.704744351978098
121 3 8 -4.3359994164795905 -7.236286156335078 3.379980929674529
122 3 8 -4.7452912614307925 -9.205955248821992 4.192132163813398
123 3 8 -3.553551141757652 -9.592147305495475 5.233268474518035
124 3 8 -1.9820475926314105 -7.973403840113352 5.658777324585511
125 3 8 -0.9673281594534459 -8.020869179653973 4.675630463888496
126 3 8 -1.6329247992914409 -9.44903316376005 3.348575830336127
127 3 8 -2.9390871231666162 -9.438729691450794 4.334045867609556
128 3 8 -2.163396067524579 -10.198195184476845 4.570232586183383
129 3 8 -2.600655190606313 -11.575184858860295 3.9698216148584318
130 3 8 -3.794584277889828 -11.89885044975568 3.3111346686087466
131 3 8 -4.711958938935138 -13.185916647989686 2.9876511459425403
132 3 8 -5.636884080467836 -13.508447632874764 1.9165781867194487
133 3 8 -6.7927027478395665 -13.40179636690361 2.086330983096883
134 3 8 -5.991262391427869 -13.750361275198806 1.0039001596683834
135 3 7 -4.833343333423559 -14.739242429013178 1.2179239378867202
136 3 7 -4.466810686230501 -16.38336963771271 2.083757481334202
137 3 7 -5.147252886765604 -15.88633741695036 0.8294292105189058
138 3 7 -5.803761957423805 -16.37530504341657 -0.15960498318391794
139 3 7 -4.880328749137222 -16.080152061042284 -1.1353781096564084
140 3 7 -3.2779985307490755 -15.72031360339946 -0.5235730814188042
141 3 7 -3.871502628389842 -14.542684379863967 -0.6129621548472245
142 3 7 -4.667886337775657 -13.836370854393053 -0.027793426434047967
143 3 7 -3.5786345779507123 -14.162428321499563 1.1914945662117447
144 3 7 -3.493689558152456 -14.451498862705787 2.978267861542204
145 3 7 -2.6787697102716397 -14.265063755982753 4.227117587668989
146 3 7 -2.7579617528422653 -13.214538667194448 4.103287329256795
147 3 7 -2.3487962158335765 -13.590945757119023 5.490458808616923
148 4 8 -1.888487013102609 12.190201726380963 17.249049229087497
149 4 8 -1.4859178540153875 10.625485282689123 15.930649573633605
150 4 8 -1.6832080250699082 10.849693408829378 17.363923579830974
151 4 8 -0.597688246506751 10.981054918086972 18.16441465459288
152 4 8 -0.79873852919152 10.105317642738772 17.615749275484028
153 4 8 -1.3479860617509902 9.350535362295629 17.043160736466746
154 4 8 -2.372207017366799 8.907999508879069 17.371843842065317
155 4 8 -3.290998357228885 8.17438988061257 16.89970655241276
156 4 8 -4.213389682548159 8.84039553159748 16.420957145611112
157 4 8 -3.9266575371260513 7.433641873020254 16.29172898825856
158 4 8 -3.301712375890377 6.776953669273486 16.754992928478835
159 4 8 -1.8047341675548805 6.328961885692687 17.022723929866096
160 4 8 -1.9021473553832673 6.459550268761259 18.300802776823055
161 4 8 -1.2114737824795678 5.45567801826389 18.83284974081877
162 4 8 -2.4537352172640463 5.0385668638211465 18.638179617963672
163 4 8 -3.6246504083524025 4.88749229872737 21.17015046605902
164 4 8 -4.873100421885078 5.666974489166074 21.23815198446855
165 4 8 -5.0776637267143085 7.531626224692674 20.99549392118984
166 4 8 -6.172658098872111 7.029424934383807 22.476260773268454
167 4 8 -5.1707815102369175 7.117454843211935 22.779125407606703
168 4 8 -5.944874066650261 7.399086633543537 23.655549540102566
169 4 8 -5.085162665656864 6.109754147010351 23.803012631542444
170 4 8 -5.6023566057979455 6.036837516973167 25.451575431141748
171 4 8 -5.348803843749 5.205578003325321 24.610237261521483
172 4 8 -4.320638912094545 4.32793001469187 25.352410606044486
173 4 8 -4.427790331076804 2.946438474330331 24.648315753672758
174 4 8 -3.630420597227488 2.792514687529289 25.63021339498951
175 4 8 -3.2882183501354745 1.964777354520252 25.161828811546066
176 4 8 -4.464822359886982 1.2119974097578519 25.65396260888879
177 4 8 -3.4723006002324355 0.016555763512033948 26.21947548170236
178 4 8 -2.948625748018337 -0.8360796658912906 26.634531617282008
179 4 8 -4.124355903096935 -1.418409358876729 26.873943363769563
180 4 8 -4.398001717076186 0.3763163795555271 26.633812428571122
181 4 8 -4.082184779273255 0.05754273909984777 27.645844484478726
182 4 8 -2.5033995155005586 -0.09118130329582996 28.04759087121469
183 4 8 -1.550530112211152 0.1745294081385409 27.1143496029709
184 4 7 0.05198460199369282 0.34506265066048747 27.25464592753068
185 4 7 1.407839337961377 0.16522968104450103 27.415489227559807
186 4 7 0.7860880512969662 -0.7006077136940132 26.033820267052807
187 4 7 -0.4592250771754572 0.05039066175582159 26.112010499592078
188 4 7 -1.078162446059292 -0.9019048260083644 25.469108116161824
189 4 7 -0.9427627956731877 -2.1647680344875644 24.457210123109725
190 4 7 -1.6824430453588926 -3.0623229353969106 23.659505133934463
191 4 7 -1.704447584395784 -3.286810813801115 22.501007827431696
192 4 7 -2.2868032737545025 -4.617420623162184 22.33750192038078
193 4 7 -2.257087595422951 -4.7520617087589425 23.82259390029866
194 4 7 -2.945586094971377 -5.5149772746660854 22.83079190456864
195 4 7 -1.6152197797990058 -6.019209966808731 23.491102506733974
196 4 7 -1.0607573633881275 -7.614786390334356 23.232341273737806
197 5 8 -0.2889649636273478 -4.559355760525903 11.419798063414166
198 5 8 -0.022768547799249934 -4.988557385799992 13.335011706043787
199 5 8 -0.8410390216814977 -4.565381523056058 13.929209314709768
200 5 8 0.5531218703379406 -3.9118386050510496 13.608874108796646
201 5 8 1.4634369004206897 -2.9797516865709337 14.601783666780268
202 5 8 1.642851656137718 -3.005235365528465 15.86029567254777
203 5 8 2.9369061875347278 -3.7517543096698605 16.10729263773738
204 5 8 3.782021072544141 -3.4110637659559075 17.000880360546425
205 5 8 3.5761747870767473 -2.432905931204629 16.8291781591406
206 5 8 3.4665406120119133 -1.1594911416394627 16.46864947583087
207 5 8 3.6716764395308097 -1.9382620552266294 15.646423619227882
208 5 8 3.448436950727889 -2.6269731304694557 14.224381763754826
209 5 8 4.612992237583714 -2.509916776059073 14.983488890296494
210 5 8 5.695450275012148 -2.9177124349542876 15.093789605721502
211 5 8 6.647053842774063 -2.20718573568098 15.055442722196494
212 5 8 7.567129433968369 -2.177772311000737 14.354501591479915
213 5 8 7.164945766880665 -0.8761576834543302 14.234380778625521
214 5 8 6.414739011824278 -0.289306287419336 13.334229108791435
215 5 8 5.367122425683815 0.7823669755840522 11.618934603781334
216 5 8 5.107323569897398 -0.19252574672477 11.032625899795852
217 5 8 6.17631352675773 0.22247759752257618 10.584251973957644
218 5 8 7.045490352893985 1.1479480953027934 9.344973552846959
219 5 8 8.185784119691228 0.9299946544536388 9.424272726512962
220 5 8 8.709984949769781 1.0543481692578824 8.088414530611633
221 5 8 9.249999782784705 1.0357111111590425 9.578775931517024
222 5 8 7.5493852230776675 -0.35523193704136924 8.835020619728697
223 5 8 8.44286411186175 -0.16757832238268708 7.189375137258658
224 5 8 8.097448308253549 1.258023244776991 7.08022207203634
225 5 8 8.08665677119579 1.4509806220988928 5.307121312511382
226 5 8 8.598716241882965 1.2791118233844008 3.918863611411518
227 5 8 7.210469978835547 1.8343515958095842 3.8794993512177944
228 5 8 7.995256892447381 1.3292181703741315 2.7247884216260108
229 5 8 9.418210694533975 1.8083353706926493 2.9184617552292678
230 5 8 9.107034347604433 0.7183144597097796 2.812445907339512
231 5 8 7.758010924880454 -0.2534195452509718 2.6966642670829053
232 5 8 8.362180323910385 -0.6537999466442951 2.047895228487678
233 5 7 9.183861857246551 -0.9048365132822935 1.438161687731175
234 5 7 8.212739432837052 -1.8176040619803933 2.480299547342067
235 5 7 8.844472684985062 -3.2224343690890347 1.2310557016033925
236 5 7 8.946077508947441 -4.101115397233068 2.1615894862338987
237 5 7 7.493970479054018 -4.456140274526903 1.5297630992182265
238 5 7 7.027806217367327 -5.179872879946572 2.1653848621869334
239 5 7 5.508766955808409 -5.140380576127442 1.954336421559801
240 5 7 4.741697125239126 -4.350069658758324 1.1666176361189824
241 5 7 5.148448872331596 -2.9033412682013267 2.046883244853933
242 5 7 5.537396403311941 -3.4017541620251666 3.634290875164871
243 5 7 6.6358033628930295 -3.016353920084 4.0118615669120175
244 5 7 7.528686184642704 -2.671833456910636 5.039867724947883
245 5 7 7.53749577911236 -1.901917686702445 4.287983326081599
246 6 8 -2.0148923899097353 3.350547866171993 4.394480369095288
247 6 8 -2.8599922692533744 3.1956867928585138 5.589352262616787
248 6 8 -3.1872269266604043 2.4512809655288073 4.612822365159578
249 6 8 -3.175017692331423 3.580132596228299 3.5141223988657515
250 6 8 -2.14620483201717 3.5390716257616086 2.4874043616618944
251 6 8 -0.9887949823569424 4.581604786214406 3.451096918245589
252 6 8 -1.0441847993829343 3.8075244954746514 5.0859169115704885
253 6 8 -0.4521615346221795 5.028331563168111 4.609991212799618
254 6 8 -1.6726819987556691 5.011531292516823 5.961720808866855
255 6 8 -3.022401492251021 4.471605408492562 6.782123518172922
256 6 8 -1.760483865457867 4.779274432924747 7.220637957906164
257 6 8 -1.5954987179419287 4.596465187418406 8.318803371538564
258 6 8 -3.001284981978818 4.1552624474479005 8.386080771583973
259 6 8 -4.84654919202194 5.115071934124835 7.677483262743408
260 6 8 -5.329853316831046 5.896929781640806 9.003239058540574
261 6 8 -4.5309443446061 5.441547033962885 10.244319233501514
262 6 8 -3.310007424785804 6.51091057541482 11.155598773137646
263 6 8 -2.8027955921939918 4.538380403216634 10.085680654473368
264 6 8 -4.335198000044339 4.056885358209041 10.2418997997568
265 6 8 -4.461612418552999 2.5254972188917817 9.570017328834874
266 6 8 -3.2121675821641476 2.617758372159014 10.52887219564005
267 6 8 -3.7637169683928957 2.1483337316561144 12.17276558907273
268 6 8 -3.7224080786232685 0.7504103268944229 11.293048696398023
269 6 8 -2.893212906725566 0.12617963169828084 11.517714728199614
270 6 8 -2.841606082529064 -0.9352325034518203 10.705615537189978
271 6 8 -3.7913102071442646 -1.1083600913194238 11.970319850097544
272 6 8 -4.746723048559045 -1.8646483645873335 12.096083278935403
273 6 8 -3.7553788720702164 -2.7991539291127037 11.679928146435351
274 6 8 -5.077603492832405 -3.571837020865904 12.22251831905628
275 6 8 -4.29651481470031 -2.8130434174089705 10.746178748208152
276 6 8 -3.182834317087262 -1.892280553916656 9.937883788961514
277 6 8 -2.233768279578998 -3.0211275465255136 8.720243862422208
278 6 8 -2.68639005230657 -1.8821656565838767 8.710345224545925
279 6 8 -3.6040048093691115 -1.6237899615080729 7.999787710143707
280 6 8 -4.164956986843377 -2.4517978086438874 7.128767427230313
281 6 8 -4.774179032054294 -1.5659740726171056 7.613126692625793
282 6 7 -5.046857604470299 -3.2843749659218093 7.632689262165326
283 6 7 -4.3635330590868655 -4.028608130266473 6.776925678958045
284 6 7 -5.024780124757076 -2.7051777511221156 5.92908803944323
285 6 7 -6.470188010206028 -3.338354983300599 6.245685159004754
286 6 7 -6.675897333608307 -3.7359511294127343 7.245468690972834
287 6 7 -7.725684698249762 -4.479968456603247 6.650810010630867
288 6 7 -6.979237279823782 -5.324018495805568 6.6656088427752405
289 6 7 -7.10961949732969 -5.905158424063509 5.409977321089715
290 6 7 -8.256184464234138 -6.3032806325454604 5.324436275380481
291 6 7 -8.195306478111297 -5.408580574088898 5.004940178841034
292 6 7 -9.31359120891168 -4.571297484118223 5.7788301322732085
293 6 7 -9.111488615454903 -3.6444202911127173 6.128410762433136
294 6 7 -9.75566563737404 -2.361585646925612 6.28950530943064
295 7 8 3.4057097520152997 13.621020662245604 6.0829296303690485
296 7 8 3.9268075726045137 14.01911703779484 7.363412882122934
297 7 8 4.056019209787447 12.904544558025773 8.351465819328181
298 7 8 2.631463753538356 13.208018427899084 8.788827346505848
299 7 8 2.561709484030113 13.520587672265664 7.579866285770488
300 7 8 1.3685092235330214 13.081269748367044 7.762054338962342
301 7 8 1.226533256444648 13.858022181036539 8.382554849970264
302 7 8 0.9431689812199017 14.588168084340735 9.128679369980235
303 7 8 0.6182622643069585 14.232113770946476 10.198008468219864
304 7 8 0.6544894100137746 13.308417524041232 11.497188778384041
305 7 8 1.3971684503758512 12.326564860013471 10.826177177085322
306 7 8 1.567108468365857 11.135354457946788 11.7970565569331
307 7 8 1.4689217651051605 10.628379147834327 10.230162444267997
308 7 8 2.463804621183701 10.69326623268331 10.803628228700271
309 7 8 3.6942631892885065 10.188195908673897 9.668468686238704
310 7 8 5.0563051298137855 11.009236231994002 8.82685697239932
311 7 8 5.231753274529795 9.247885294524648 8.830367273472552
312 7 8 5.314074282985794 7.880023870608593 7.618013512133968
313 7 8 4.254790703525946 8.6718577012791 8.783995463895168
314 7 8 3.712842894568137 7.853839756583575 8.29476705155638
315 7 8 3.4667343206654286 6.606360019311031 8.411059830294805
316 7 8 2.979670586062239 5.723505831464866 8.127033202868578
317 7 8 3.4470472663818104 4.950531055997677 6.822631667554197
318 7 8 2.091630733525714 4.092814367662114 7.628346954716299
319 7 8 1.5423442691788927 3.7136393670265915 6.789516902331812
320 7 8 1.8780067432129464 2.285870309651502 6.570772360341818
321 7 8 1.8933281065557663 2.0711592545098174 7.562918479555802
322 7 8 0.5941013954411339 1.9898898814932413 5.6083134533739
323 7 8 0.5064738530351588 1.3722389912643236 7.3665795068757784
324 7 8 0.3239018992849611 2.4668256112238174 7.496402662485624
325 7 8 0.5961357847809576 3.5176403852706533 7.637568264513851
326 7 8 0.5348273911430174 3.554725516289561 9.159290849382868
327 7 8 -0.3415650417886658 5.471823274722111 8.157661718622592
328 7 8 -0.7306932921802496 4.931215856001385 9.185480991717213
329 7 8 -0.3561458724267692 3.7834145991746917 9.038047608994965
330 7 8 -0.023486866450528547 2.0274427419078096 9.190564513375572
331 7 7 -1.360615237678784 1.870711771667904 10.298150408537651
332 7 7 -0.0722615919438845 2.0834229265581308 10.837925456468717
333 7 7 0.022157695078399146 2.4673682225072127 12.460539892366336
334 7 7 -0.5772807242891393 2.966427849624033 13.176974088708928
335 7 7 0.9140168620333541 2.767385437656004 13.35790627044474
336 7 7 0.688438084164473 3.6376629565333496 12.60700241252421
337 7 7 0.012922792946336147 3.498848244216687 11.52778083005125
338 7 7 1.0014212316053548 4.698964266334983 11.98834594645419
339 7 7 1.7822708029313772 5.383291497817475 12.345489625734116
340 7 7 2.213361324913389 5.643642559770385 13.64545310260086
341 7 7 1.9553642150976611 6.243300260620313 15.04078524869211
342 7 7 2.785605491960091 5.147349405299689 15.891304472968418
343 7 7 2.3690088802053144 6.012991285261292 16.47543443492778
344 8 8 7.395175525101449 18.997659860227397 -8.248696832259084
345 8 8 6.971317794593632 18.511220616257834 -7.407381348726769
346 8 8 7.102810310477359 17.32548194248131 -6.998181544655466
347 8 8 7.617198099310379 16.04096953050758 -7.2729453166125495
348 8 8 8.360154333478208 16.570821106104937 -7.919591975168953
349 8 8 8.847724294497983 15.855124036149931 -9.571562699505247
350 8 8 7.454627067706959 15.978784065946204 -8.74230227987556
351 8 8 7.27937779415248 15.974451092009149 -10.275029142275553
352 8 8 6.488667508324823 16.816340064982985 -11.33894918089201
353 8 8 6.143628905546818 15.046396152038366 -11.381103232048075
354 8 8 6.527713892757496 14.135148785413254 -11.007588686070246
355 8 8 6.5727513153588175 13.12004775961565 -11.62328384208693
356 8 8 7.648233066559662 12.838710698364261 -11.189734095198169
357 8 8 8.651928662890542 11.772218330875935 -10.857153386537211
358 8 8 9.096276132204322 11.50789842674868 -9.703932175384557
359 8 8 9.573257680263085 12.167769171704728 -10.50062850353188
360 8 8 9.564426534851343 9.712291457092606 -10.845222472804158
361 8 8 10.34941373196424 9.557861142375337 -11.474866925098027
362 8 8 11.528932119321773 9.493126835230381 -11.52894758548932
363 8 8 10.82298730028551 8.609028911584675 -12.565229486111882
364 8 8 9.76013336701233 7.717529605854001 -12.922709226734113
365 8 8 10.34426458233449 6.525408327195413 -13.401554140982501
366 8 8 8.854998929111137 6.373439497506557 -13.605561933597164
367 8 8 9.310958149225577 4.694901976135285 -13.231680265723199
368 8 8 8.129376789902992 3.5263828642768518 -13.985752814489869
369 8 8 7.935903150025671 3.759655764349679 -15.44369483458472
370 8 8 8.438986668173841 4.755252469942528 -14.72253231878307
371 8 8 9.140565371735756 4.714402971526186 -15.732301655296439
372 8 8 10.288047817500342 4.095738823888096 -16.68075168429269
373 8 8 12.594465122937143 4.313638696987155 -15.688568919337323
374 8 8 13.26880350437773 3.163728757701622 -15.693674485812442
375 8 8 12.104330887419211 2.1454267257258746 -16.418790318443605
376 8 8 11.91159238053607 2.51887363937073 -17.97012422664987
377 8 8 12.245993252595042 3.402699476723194 -18.42628301861191
378 8 8 12.644039747381136 3.798293212365251 -19.364903693420302
379 8 8 13.568101959886906 2.744308596548897 -19.45510892410171
380 8 7 12.333642508591032 0.8353399150631392 -19.766986312804057
381 8 7 13.825039093601085 0.6882135564143931 -18.84025936525295
382 8 7 14.084210884044497 -0.5513549986869413 -18.85896654092955
383 8 7 13.924405933180106 0.3852366017239414 -19.93273030630239
384 8 7 14.388892715992423 0.3661315940742053 -20.90527821203707
385 8 7 14.442094698296412 -1.234248119689588 -22.189872909482432
386 8 7 14.377476436067399 -0.112717519904051 -22.870590048894353
387 8 7 15.712388575386083 0.03961102545574335 -21.984904829113553
388 8 7 16.334579265558183 -0.8176629743293877 -23.060771025377807
389 8 7 16.84121984961921 -0.585417924474798 -21.195332248793385
390 8 7 17.969012053695092 -0.4741105801094967 -21.02996655952397
391 8 7 17.738526158850025 0.430986488336275 -20.21648795733022
392 8 7 16.540859174816454 -0.3876797202231316 -19.972319906607744
393 9 8 -6.662038278538937 -5.381809533424413 -14.12633718229751
394 9 8 -5.84215786416569 -5.337331022336551 -15.109365442128086
395 9 8 -6.126869796839767 -4.54277464567635 -13.805155141489793
396 9 8 -6.914872226408956 -3.336048063278416 -15.141525490177708
397 9 8 -6.850145836174888 -3.4383041245629458 -13.790749629325655
398 9 8 -7.612127992518783 -3.5325996964737487 -12.944138738573585
399 9 8 -7.672248564167926 -2.5878627967754033 -11.95706992643157
400 9 8 -6.98345811867599 -2.129028303342955 -12.74479557395346
401 9 8 -5.741403835707012 -1.4733705592662767 -13.217349639731538
402 9 8 -6.2446900327605075 -0.428462269276474 -13.319903360406759
403 9 8 -5.742069550666001 -0.678774687935465 -12.232646206226892
404 9 8 -4.94744174589003 0.21436760820499717 -11.72743715743299
405 9 8 -4.905231827149575 0.4961533325936485 -12.898089140505512
406 9 8 -5.868531141551019 0.9649957594004629 -11.939405292819007
407 9 8 -7.247188800072977 1.1728594669591281 -11.779066224289547
408 9 8 -7.671817885188536 1.2139586794538952 -9.71941444874224
409 9 8 -6.688778419277298 2.135229067652124 -8.45253548206452
410 9 8 -5.667944753046531 0.7961981947015022 -10.024683773102474
411 9 8 -4.782822628619071 1.5322212455251807 -9.04842821496682
412 9 8 -5.382530723666687 0.25808247679291535 -9.003971573036198
413 9 8 -3.9410308488050294 0.23583613433182862 -8.496125291403612
414 9 8 -4.900084313721099 0.4526265319407971 -7.5991272677710855
415 9 8 -5.95931772767275 -0.518328238742281 -7.945525363090777
416 9 8 -7.048658619249493 -0.715829378980626 -7.169115006659824
417 9 8 -6.884298770550796 -0.5005826747777926 -5.754779788253984
418 9 8 -8.11015575646547 -0.8368387583281419 -6.115567963430076
419 9 8 -9.063836513683531 -0.8533696922687573 -5.91411087400828
420 9 8 -10.406353801747183 -1.3697051367677469 -5.456015538946122
421 9 8 -10.267977797664944 -0.22833800792237294 -6.530281563710326
422 9 8 -10.556217899430226 -2.454171927002848 -6.126369417286913
423 9 8 -11.599931543055854 -3.0606346234180672 -5.440243222354292
424 9 8 -11.165560654191816 -3.6466042360120343 -6.314509034305059
425 9 8 -12.254393154305562 -4.56589121737546 -6.597877053659621
426 9 8 -12.004264582604902 -3.437302237686869 -8.195253229813387
427 9 8 -12.299000040898946 -4.904628583595525 -7.971444225404129
428 9 8 -13.359055258228134 -6.269492546541474 -7.59708164517642
429 9 7 -14.245773974453192 -5.951306631752017 -8.31761743654983
430 9 7 -14.789944775249333 -5.175015703626955 -7.226237911433909
431 9 7 -15.386144451045697 -4.574311356567365 -6.234732672175773
432 9 7 -14.820483218303131 -6.404660650417004 -5.322538109851787
433 9 7 -14.551245784799956 -7.517073068245227 -4.673863369078151
434 9 7 -14.325581915990231 -8.564471398222326 -5.726916721813933
435 9 7 -14.306499346416134 -7.179717542246028 -5.933278466871488
436 9 7 -14.29239553815736 -8.251478771102638 -7.1625941218101605
437 9 7 -14.313348244912588 -7.169159006190423 -7.395047925042144
438 9 7 -16.031148632546024 -7.475511221748576 -7.941120990235603
439 9 7 -17.37914144758745 -6.863913972754017 -6.750127728862877
440 9 7 -17.482875745251217 -6.731545641945906 -5.54564741118292
441 9 7 -17.24097926651166 -6.198627470652412 -4.584077418658614
442 10 8 0.30698618041544984 16.00412884444025 -1.3444854689612493
443 10 8 -1.239728797346794 16.0590282792712 -1.3746107926286761
444 10 8 -0.6043816703495902 16.59383507789467 -2.3513294663498816
445 10 8 -1.5504342530921233 17.477719011659936 -1.968991895635669
446 10 8 -2.775202341779511 16.380010973960832 -0.8469116450957366
447 10 8 -3.588945227704676 14.997744537793588 -1.3407224874100394
448 10 8 -3.78962422337034 14.60985026135925 -0.1953368035051645
449 10 8 -3.490676740065932 13.311073920659927 -1.0548964138800963
450 10 8 -1.9198894929549317 13.007690682080641 0.21115755617947318
451 10 8 -1.7828049149379077 11.911642115454734 -0.6717302065709754
452 10 8 -1.5205388631494026 11.567770612172252 -1.7595486687474278
453 10 8 -2.956530422420319 11.504641084541635 -1.7974020960253072
454 10 8 -2.951014056490986 11.418975540459051 -3.187844949046999
455 10 8 -2.475634558005841 9.731832130669883 -2.935158642412193
456 10 8 -2.4501615380465265 10.150367546577106 -1.801210539183196
457 10 8 -1.0836297574184395 10.707283452108193 -1.1119386356164962
458 10 8 -1.3835804785507597 10.148559388002916 -2.601339135368204
459 10 8 0.17715674125839828 10.162675180968742 -2.454879997006689