# Generated from readdy-to-lammps

1005 atoms
633 bonds

10 atom types
1 bond types

-30.0 30.0 xlo xhi
-30.0 30.0 ylo yhi
-30.0 30.0 zlo zhi

Masses

1 1.0
2 1.0
3 1.0
4 1.0
5 1.0
6 1.0
7 1.0
8 1.0
9 1.0
10 1.0

Atoms

1 1 8 -14.30173533225987 -8.220829114582203 -10.448114981801016
2 1 8 -14.353626537682047 -9.102191278549807 -11.35160276865907
3 1 8 -14.747566542699225 -10.243768902948988 -12.512910057507266
4 1 8 -14.151152468758351 -9.055690471536893 -13.4137346302168
5 1 8 -13.075634727379365 -8.900943265857554 -13.433932282181257
6 1 8 -11.646063503635284 -8.527163092752632 -13.943814332905973
7 1 8 -12.513296177464255 -7.078660257165864 -14.179006660697436
8 1 8 -12.953329189186352 -5.467023613040199 -12.989087165032071
9 1 8 -12.075799705772976 -5.945833146761498 -11.335808667224358
10 1 8 -10.815487358078853 -6.273406444172867 -13.03468705911048
11 1 8 -10.400728170687728 -4.6334775923166145 -14.105861018988923
12 1 8 -9.879048137792294 -4.616022178244159 -12.725635986361379
13 1 8 -9.142754608485715 -6.179189351076015 -12.594976748164756
14 1 8 -8.266252516561961 -5.046898715108086 -13.125900206467074
15 1 8 -7.6638509825035666 -6.433447903577569 -11.381181162985374
16 1 8 -6.823357220061556 -6.371539021645593 -10.838797225372044
17 1 8 -6.698811111966561 -7.542635123909929 -10.705350026780271
18 1 8 -7.518589532211011 -7.951320966737882 -9.803510217001195
19 1 8 -7.531153342535564 -8.506478053615083 -10.885417183057317
20 1 8 -8.071778002241343 -9.4009144285235 -9.225527965385224
21 1 8 -8.005406432024174 -8.129309730595773 -8.449863562086518
22 1 8 -8.231314428678585 -7.850699087488216 -7.1867334068737
23 1 8 -7.967860393537967 -8.788215886385066 -7.070564648113383
24 1 8 -7.3571687304208995 -10.404494044433024 -7.275806020247838
25 1 8 -7.164565174440106 -9.952616028215056 -8.5805485336189
26 1 8 -6.358415158030126 -9.682660685653618 -9.14352850044444
27 1 8 -4.842309774960783 -9.435464677204966 -8.137896488556148
28 1 8 -4.273619322437266 -7.516333721099244 -8.225276150533501
29 1 8 -4.956206923542135 -7.147816447001823 -9.332255767798863
30 1 8 -4.5907235727941105 -8.17657562159832 -9.743127146484694
31 1 8 -4.540481919673372 -8.744101299421317 -10.744895353914787
32 1 8 -3.3372885356777497 -9.17499026939644 -11.492049557251883
33 1 8 -3.163375145057779 -8.088823998270309 -11.187890961023067
34 1 8 -1.5269506741569259 -7.505260790247573 -10.841260547423296
35 1 8 -1.6601998195548364 -8.73394190449917 -10.589864137418235
36 1 8 -1.4955055514595565 -8.746466839641187 -12.039504007506876
37 1 7 -0.42343645844188793 -8.115593082598057 -12.422306395545723
38 1 7 0.127203725310142 -9.0613420058256 -11.714850480087959
39 1 7 -1.4396936447234323 -7.470640856065056 -12.23588360243012
40 1 7 -3.4101184355703174 -7.464944965355412 -12.269937562411606
41 1 7 -4.502862816259036 -8.801845212780046 -12.027144319128892
42 1 7 -5.686788073489481 -7.795145112514041 -12.497586963667127
43 1 7 -5.198858156266477 -7.304739021792493 -13.711165644640817
44 1 7 -4.999478735097095 -5.984279590408674 -13.544934894752902
45 1 7 -4.1060062662501515 -5.126329169321021 -13.085010166477614
46 1 7 -2.577118896289985 -5.008284177857494 -11.688610444462016
47 1 7 -2.5994565302434296 -3.2819092850865337 -12.163357429811473
48 1 7 -1.4382584858180063 -3.7028852418292995 -12.209626281665209
49 1 7 -0.44880610356515765 -4.586277564299141 -11.726333710154243
1050 74 4 -0.7179822210845037 -2.3778058832634943 0.16092845832132333
51 74 5 0.48500939395259923 -1.3370279648248466 -6.0922873660479535
1046 74 5 3.0973359969499055 -4.274301457059428 -2.211036869487692
53 74 5 -1.1127966463862804 -4.816431981587853 -1.563599623227923
1042 74 5 2.7627847706294153 -5.137327339576175 0.9936749286099616
55 56 8 4.7193436693187 -6.39364438275271 0.6164959421961473
56 56 8 3.402932314621556 -6.8749896658680845 0.1983265143415701
57 56 8 1.8829253054373758 -6.983848127927194 0.7285520881763797
58 56 8 2.2381900929115535 -6.207521816869932 1.6390614297091604
59 56 8 2.0105749588595376 -5.519398317624925 2.537227082436401
60 56 8 0.5423106723134851 -5.340265010321417 3.1919104453185994
61 56 8 1.0748445655070593 -4.333341774254808 4.3609949089567515
62 56 8 1.0185019020436181 -6.143119042414233 5.142497258570835
1007 74 4 -2.3871578037824754 -8.686595437673455 7.693868951505053
64 27 8 -0.5915815366211447 -5.627146877176434 1.1830045478148217
65 27 8 -1.396903301999093 -5.963950371615059 1.7861224981436779
66 27 8 -2.0233030603457225 -4.331907856784814 1.9386579156977528
67 27 8 -2.7856283439086127 -5.030339672819937 3.045530601725925
68 27 8 -2.3563761261696583 -5.263031677508875 3.957946291226343
69 27 8 -1.2419235371570705 -4.200962249014402 4.71891987817266
70 27 8 0.24590280080355012 -5.1290044243523845 5.18296166414312
1036 74 4 -0.33805579582925205 -3.7740078234969983 3.950029567634233
72 74 5 -0.6299346814958903 -1.7945664720917158 3.1918807723128975
1009 74 4 -2.6663322107998932 -1.7913270215197417 7.337040448752033
74 58 8 -3.0045733777076324 1.0108710302323125 0.6115450425536347
75 58 8 -3.1413024370543634 0.30583593415873667 -0.13378844437503573
76 58 8 -2.8706261770762307 -1.1552600606913237 0.9986463992057901
77 58 8 -3.7521531900354033 -0.7957566984838019 2.1176971534015574
1074 74 10 -4.3216544930594525 -1.7698696126306135 2.2969778062032065
1037 74 4 -4.38071659852212 1.323590746889468 5.871122198766851
1017 74 5 -6.118403432979844 0.46829915149385365 3.857260624151828
81 61 8 -4.243613805334856 3.4581866141435293 4.604772559669023
82 61 8 -3.1365111370819396 4.534265340294979 3.238465249967225
83 61 8 -1.521789039606677 3.9043100377494286 2.4524241333744836
84 61 8 -0.8389698163316872 2.0682461337763463 1.7171716495500544
85 61 8 0.19877491962964877 2.0006016536414624 1.7966946024754131
86 61 7 1.6155122011788807 1.3030986555702517 2.4217172265848053
87 61 7 2.0146084053374396 0.6426613424620166 3.100958048696501
88 61 7 1.2784282710173798 -0.8200947026998218 2.768963817881448
89 61 7 0.557105033049801 0.5246970828107697 2.8327404353279424
90 61 7 2.447912433377309 -0.19154095844122587 1.2958690647710085
91 61 7 0.72729936270973 -0.6075342743220945 0.5487770635900996
92 61 7 1.7308739515763774 -0.9658631752153172 1.614954155861263
1044 74 4 1.5831833163637647 -1.6712034288043571 -1.7079488177218265
94 60 7 0.2735539056022706 1.0745895617395678 -0.4259954299262702
95 60 7 -0.9771085653562497 0.08310833134054266 -0.9933533289895274
96 60 7 -1.6462130958004422 -1.296237666057557 -0.9813497747643075
97 60 7 -1.0093785829382809 -1.2987992475896486 -0.11545670444598022
98 60 7 -1.949221624245216 -2.588869230025553 -0.6526891100775807
99 3 8 1.3026122781784482 -6.8994617870604955 2.7155163226715597
100 3 8 2.2386516339167266 -8.003593481631263 1.6613929883656626
101 3 8 0.9739897575591047 -7.857118015408169 1.1285417024636681
102 3 8 -1.103752697747594 -8.698486891213967 0.8506599275496551
103 3 8 -2.0679865299897053 -7.775094692989409 1.1271482076254924
104 3 8 -2.0409810386573404 -6.75284345732453 1.2202570796823096
105 3 8 -2.261433870625973 -8.243384707761221 0.2889964618214636
106 3 8 -2.790162194672493 -9.213891727550308 -0.9846993269134969
107 3 8 -3.4376178498367223 -8.28229347962448 -0.5926113330647327
108 3 8 -4.086481095418748 -7.3803744917463066 -0.7057436864374574
109 3 8 -4.632124104238428 -7.9946044610035685 -2.1004410284406836
110 3 8 -6.207049021725599 -8.693368965375942 -1.9523825738072007
111 3 8 -6.400744998083892 -7.814860256614934 -0.08671902690613313
112 3 8 -6.187966762320436 -8.94883730632476 -0.8541790829155639
113 3 8 -5.710064352091778 -10.513919604461133 0.11489682631096068
1024 74 5 -3.753425588898356 -10.578391509915328 -0.8052929244294184
115 45 8 -5.289255338031153 -10.33162616303298 2.3866588049880946
116 45 8 -7.07154752360215 -9.887035219610341 2.155318737580022
117 45 8 -6.028491631219498 -9.558771059835559 3.16937474779739
118 45 8 -4.767891259432762 -9.25912629187186 0.5887644827106537
119 45 8 -5.330631240604108 -8.69966729666658 1.6101752809450267
120 45 8 -6.097307499956 -7.8321030269732095 1.9113727607367557
121 45 8 -5.695974574824943 -7.445910265597701 3.743936713810648
122 45 8 -4.706595212244292 -8.027261040109638 3.031537481900843
123 45 8 -4.639702739010016 -9.413378701387925 3.469563270852942
124 45 8 -2.8489302939729164 -10.015199176358044 4.15486929679555
125 45 8 -3.2973399604196074 -8.499699644603457 4.052568658637848
126 45 8 -2.3832130932140116 -9.71854217048437 2.8534699352161885
127 45 8 -3.363701610095579 -10.104372299080792 2.871739964333079
128 45 8 -3.182009957813041 -11.242981186755246 3.231959507939372
129 45 8 -5.395418793160619 -12.34745863679845 3.364680166266885
130 45 8 -5.926382088145923 -13.040065400982858 1.9780521882229498
131 45 8 -7.625195066868184 -12.514815956237827 1.7839460850694586
132 45 8 -8.199404532184744 -11.354195437694624 2.985326194263072
133 45 8 -8.642906534655728 -12.858835932198415 2.2084181090714416
134 45 8 -9.054635818278813 -11.79058489277148 1.4417418908704813
1025 74 5 -7.835933496054048 -17.28256684752734 -5.634388955950864
136 42 7 -5.9400854431437216 -15.636160293579309 -1.848620313123613
137 42 7 -5.773911985514857 -17.001073468305034 -1.1326479102781482
138 42 7 -5.8888703001374925 -16.03654798530451 0.028287645957219942
139 42 7 -4.459167646464334 -16.812041109775162 -0.23620425724338695
140 42 7 -3.3155110659512035 -16.51452079274442 -0.441596822698067
141 42 7 -2.1078923030090655 -15.33990326682422 0.33422451285167903
142 42 7 -1.8177644084551459 -16.00901403320653 2.2625919620478916
143 42 7 -1.7771608916300174 -14.355533029213191 3.3195085700679523
144 42 7 -3.5803640636453187 -14.606875354231653 2.1030127173279207
145 42 7 -5.135578466074213 -13.382320736108102 0.8472351179265243
146 42 7 -4.556835379377415 -12.22050519738943 1.3851665731549478
147 42 7 -5.676838777814889 -11.743315181390432 0.9640486983622061
148 4 8 -1.3597115884192088 11.844900990841616 18.537010196638143
149 4 8 -1.116865582269073 10.569202718069148 18.160340011051233
150 4 8 0.5685944848589644 10.917123050770654 19.555717447184314
151 4 8 -0.4115595493113758 10.501475472385156 20.62623502354509
152 4 8 0.9034156445638667 9.196239795515911 19.82845269574893
153 4 8 -0.4050814702756125 8.926352611591684 19.050706781169882
154 4 8 -1.5259280108325894 8.543234493730596 19.54504423669443
155 4 8 -2.604327782189519 9.432095110392076 19.136075931315307
156 4 8 -3.6894235477047035 9.232687812736732 17.821104626048868
157 4 8 -3.769929460246104 8.202669642591424 18.347489529058212
158 4 8 -2.2914578076673684 8.298365873842974 18.027121356634307
159 4 8 -2.8840202688924474 6.779707071345632 19.086490657065077
160 4 8 -2.6244050102804937 6.150919129600446 20.318234127807663
161 4 8 -1.2510507829831408 6.138663297315417 19.395119530069024
162 4 8 -1.5243334971892981 5.2505527518732915 20.04859630553622
163 4 8 -2.874057660940109 4.479754537359664 20.34771029054402
164 4 8 -4.811806055642663 4.311352222447791 20.401047259463983
165 4 8 -3.7405484643574924 5.6582862137506975 21.22062898073477
1031 74 8 -3.8315342529994316 6.722747299581192 21.02107016717307
167 67 8 -3.3242239540004075 7.6446552709881095 22.18532702217991
1043 74 8 -4.390698574226543 7.288050614175409 22.50140711381099
169 69 8 -4.640514433656229 5.90232974584024 24.386933224580126
170 69 8 -4.48898464012934 5.468404582530696 23.113617717211874
171 69 8 -5.828987397023829 4.1694126129225175 23.179385451272786
172 69 8 -5.792627236010649 3.6180900487604046 24.100259398978498
173 69 8 -4.491410916322144 2.5555019602258033 24.294657347830064
174 69 8 -4.194520851440964 2.2804854229150857 25.392077365343642
175 69 8 -3.527115686697305 0.8548645044532821 25.878856183902094
176 69 8 -2.677144630080028 -1.088368812697782 25.607344551120146
177 69 8 -3.9222963301279914 -0.2378469362119601 25.746147184116364
178 69 8 -4.879566234964954 -1.284176379687785 26.206592281465873
179 69 8 -3.760111257805478 -0.7786730874944567 26.77158594926363
180 69 8 -3.3831512265290886 0.08817694220110356 27.801496801842028
181 69 8 -2.22024196564297 -1.5122303617287267 27.7382148375081
182 69 8 -2.2135067222787983 -3.254757054494823 29.714373031471624
183 69 8 -1.046369338489721 -1.387074382624476 -29.46293678770778
184 69 7 0.2722820748310915 -0.9021567517042853 29.35123493709919
1028 74 9 1.5444597228478127 -0.6860729595204996 28.11274571914949
1023 74 9 2.3071503599305014 -0.5220423742406631 26.20024481541858
187 69 7 1.1849648315448442 -1.0779348807307065 26.30368749452598
188 69 7 1.3030130784533185 -0.7373624295163673 24.82751965003297
189 69 7 -0.3336797323291479 -1.6688447430924456 24.479059503550012
190 69 7 -1.4180976463450878 -2.2268976555847138 23.59004093625711
191 69 7 -2.1425455997875607 -3.869590956593215 24.36560799915567
192 69 7 -2.152760426514511 -5.09747238964765 24.31860206631601
193 69 7 -3.2059096579233652 -5.84313294351347 24.918706730380027
194 69 7 -3.382955766331127 -6.8742667982408685 23.117428931097844
195 69 7 -1.6857558308700122 -8.07117950266714 23.068047337232716
196 69 7 -1.1614679627910793 -7.510453143993346 21.702254510358472
197 5 8 2.617560111219435 -2.878295442627466 12.57211893658936
198 5 8 1.923878283536611 -2.197364176159519 11.308344508959815
199 5 8 2.386737487063548 -3.9354591934669423 11.997476422856028
200 5 8 1.90866589425079 -3.803442528265137 13.247606590908052
201 5 8 2.030219076314228 -3.066792189714771 14.58207603222757
202 5 8 1.0681747239634556 -4.200467741414552 14.585150525807974
203 5 8 0.8138640793679909 -3.3100127761248084 15.536775216780532
204 5 8 1.8042981471267472 -3.6029157746898357 16.256534295700742
205 5 8 2.187770350041456 -3.836280080979154 17.78900266332098
206 5 8 3.5768776078305664 -4.283218903350618 18.579672888922364
207 5 8 4.517895898668819 -3.2664049816463105 18.005795055828347
1056 74 8 3.8179163332909485 -3.993297815540494 17.539254091490196
209 73 8 4.116333335292875 -3.8419523060310596 15.996772896004625
210 73 8 4.998690415625448 -3.7835670514420032 14.009695139396985
211 73 8 5.205744037368082 -2.5212236896298403 14.273922123614389
212 73 8 5.6980890047771275 -3.2028422680200297 13.41815258871389
213 73 8 6.163249029785966 -2.0845439622895583 13.48638025104996
214 73 8 7.4631161772510985 -2.2365680421961547 13.45641006188442
215 73 8 7.289052934042915 -0.7244363018838026 12.631629571583073
1019 74 4 5.036919362463041 0.2826309059547241 11.53907480290553
217 30 8 5.788521841942442 1.7995193295484178 10.100157875818603
218 30 8 7.480088249889417 0.994700184250488 8.763964534894413
219 30 8 7.479539009338108 -0.676221411319669 8.823343716062976
220 30 8 9.544268885358202 -0.6584310296892714 9.88962642052938
221 30 8 8.424519781736787 -0.605452207145825 9.295804825259985
222 30 8 9.128005078529277 -0.34074602671008714 8.52736619885906
223 30 8 8.081862680993352 -0.6678029078863131 7.819009811634773
224 30 8 7.877872488894577 0.06782011779681685 6.791017687774486
225 30 8 8.93104017717288 0.7421321866387178 6.868368963982245
226 30 8 7.041752595118443 0.7825147399191172 6.1168970804275515
227 30 8 6.951664075528531 0.07799658373762851 4.8461380672245715
228 30 8 6.5096546889111595 1.4114038953589334 3.899462919402692
229 30 8 6.82908806752021 1.5649253682775315 4.863912510657296
1054 74 10 8.75060902394765 1.8619667741526988 4.012651952894275
231 30 8 10.496376388154369 0.5310753162575169 3.906357921464323
232 30 8 10.82782031783298 -0.2905604329795366 5.07183965799926
233 30 7 10.923752689461711 -1.2325460373572827 6.215289950417371
234 30 7 9.356412458639458 -1.2464729698627877 5.476558294451077
235 30 7 9.772733368657805 -3.6553265960941954 3.864984989824034
236 30 7 9.69856277226978 -3.1294825809731033 1.9442710486405568
237 30 7 8.802585745043839 -3.109816335286803 0.6958790941562052
238 30 7 8.696162473373763 -4.2166146209235205 1.598099738894898
239 30 7 7.286715818151094 -3.123473209516381 1.5307907341176132
240 30 7 6.572612325795424 -3.1128676938859927 2.4987186406851483
241 30 7 7.559625455824782 -3.907603146443696 2.832561210694166
242 30 7 7.361732942982194 -2.343316138124445 2.5036302662538796
243 30 7 8.949020301382467 -1.7986191493600323 2.0554614041247206
244 30 7 8.103944559186155 -1.0220871565131306 3.5225723282041947
245 30 7 9.198942885190382 -0.7688621218531635 3.892170342463283
246 74 5 1.7027410396140212 2.5248095558784565 5.896103335249688
1052 74 5 -1.3489603797165592 1.6598449366246772 5.899048204236186
248 32 8 -4.8414844752359585 1.359427649274705 3.702925090461387
249 32 8 -3.5838185210597686 0.9067625580251983 4.335709396708137
250 32 8 -2.4417499193371714 3.161314008937162 4.816886402489808
251 32 8 -2.0641004054281913 3.2491384984621323 3.83482481497875
252 32 8 -0.8865076849106146 2.8453976012720785 4.3211013861710725
253 32 8 -0.9480287032221223 3.8502624781462775 5.841025733310725
254 32 8 -1.729700199918618 2.8412251804828745 6.031913866552996
1071 74 10 -3.5822409949929446 3.622927938531609 6.030157500427406
256 32 8 -4.582445657273314 5.025205549543105 6.566962433325959
257 32 8 -2.7646612890902875 4.838094958808515 6.237397837645214
258 32 8 -3.6105588158490414 5.165498708724143 7.924905420146631
259 32 8 -5.033158817911889 4.994298478548734 8.873506577306859
260 32 8 -5.02892463682687 4.964167394378198 9.92722601045773
261 32 8 -4.4477378783324415 5.797451778681712 9.572833400733773
262 32 8 -3.045523486096965 3.8058007151394957 9.835591630142838
1069 74 10 -4.060808560454155 3.883692074576927 9.893233504029435
264 32 8 -3.961799039707374 2.932696572519597 10.705007423071656
265 32 8 -3.1561608055551678 3.7030057833280097 11.680846818861337
266 32 8 -2.3955601929581363 3.3059804020061527 10.609636559067308
267 32 8 -2.725748543092654 2.122601819905023 12.433725751542763
268 32 8 -1.7443600376513682 1.0459123898699396 12.360892297341797
1034 74 4 -8.155939805963142 -0.9380792074786111 10.591635693520418
270 48 8 -3.5143385184763023 -1.0829289247665093 12.817829473620513
271 48 8 -4.531699327287547 -1.76396790357766 13.18524153499928
272 48 8 -3.7093393781606796 -2.9031847603393297 13.511183949140502
273 48 8 -4.470696315365317 -2.4369980514604976 14.157500144530466
274 48 8 -4.59260186827912 -3.047304734108981 13.123529034007506
275 48 8 -3.335177032665633 -4.25598473201622 12.305648969613186
276 48 8 -3.1063869287442927 -5.211131891040113 11.372167907105416
1047 74 5 -4.16809039086636 -3.014185592295934 9.215518036111048
1012 74 4 -1.7482057552099515 -2.4638523619346744 4.80071514840087
1026 74 4 -6.804115092190078 -2.5687496155971474 11.36310177965614
280 52 8 -7.221398127032289 -1.537628818430539 8.05403692029016
281 52 8 -6.3434846157971805 -2.5350991673894554 7.766812943843454
1075 74 9 -5.426197173159557 -1.7180574960004806 8.756142135282241
283 71 7 -4.937849615237812 -3.0492765113709472 7.365518492204334
284 71 7 -4.620631809038182 -3.317483544757079 6.313580322999585
285 71 7 -5.762013801080906 -3.8448279132666348 5.945383330614246
286 71 7 -6.8059835190021 -2.981847294636905 6.2304336974517796
287 71 7 -7.487503540834293 -3.213637561371358 7.6446707570333166
288 71 7 -7.3061209958305815 -4.921575228076968 6.087486607550887
289 71 7 -8.970417138885288 -4.235065414551672 5.525683388950553
290 71 7 -9.322437882423529 -6.172356858026938 5.560472484463426
291 71 7 -10.678970892133274 -5.83919522322949 4.860355148311789
292 71 7 -11.034932652008496 -3.7484597846205108 5.00523574589434
293 71 7 -10.408129182372846 -2.8484694074354446 4.400633947400535
294 71 7 -10.469339244111708 -1.4268116521832308 3.984223616242231
295 7 8 3.1113331847177292 14.672463891929397 7.688216955782247
296 7 8 2.7126465305784047 13.6723941964683 6.88898417089655
297 7 8 1.7240715678165928 13.98657683222083 7.0606460880092925
298 7 8 1.2629734060484534 13.796122594059646 8.664351175655975
299 7 8 -0.07400867549057098 14.806865074553263 8.373687668237055
300 7 8 0.8556401275319397 14.448967992360515 7.477718404174238
301 7 8 1.227525364909788 15.096202628087052 9.0485449685422
302 7 8 0.8248083840678716 13.404299279654067 9.768366823244076
303 7 8 -0.03705697586203126 12.40404470921708 10.493627418431744
304 7 8 1.1348707374593454 12.542640983359641 10.738610584372518
305 7 8 1.4383994340994068 12.047013279074138 9.791722143116695
306 7 8 0.9459563574762533 10.823021625372194 9.252511310630071
307 7 8 1.7284430283219732 10.807193623949482 10.448669517892354
308 7 8 2.674586306361645 11.702466561486942 10.05520683681639
309 7 8 3.44053969875726 10.718494064142115 10.327746710839834
310 7 8 4.208696988863719 12.14759011322064 9.841783749680037
311 7 8 3.467510269339666 11.69704086564803 11.310920051315428
1011 74 5 5.957330301630095 7.759282183083898 7.07559896690806
313 46 8 2.5337716701010087 7.893491430395355 8.533551009910736
314 46 8 1.5667347196638182 7.133787195898611 9.474458445387388
315 46 8 1.8859782536173102 6.233642508378515 9.832512478747953
316 46 8 2.729050628155871 4.934403473286444 8.993085534282214
317 46 8 3.168597699276196 3.6805250523455717 9.777175734286246
318 46 8 3.6783565035160612 3.1651714774446416 8.966495480367165
319 46 8 3.950066847390301 1.857866333980735 7.950423687948235
320 46 8 3.1930439472603402 2.1043460187304532 6.476022159632498
321 46 8 2.091942995984963 1.2446976302332131 5.1729216806388365
322 46 8 2.866459237769732 2.5482454782872903 5.115289049142409
323 46 8 2.2405120648396393 2.5662309862039936 6.752192226713582
324 46 8 1.0771116296313636 2.6454026113281275 7.210295049099958
325 46 8 -0.28694611099993256 3.1762036306420613 6.954868734884523
326 46 8 -1.0508973027532889 4.016998660698761 8.229351683396988
1064 74 8 -0.12160888232012326 4.642585318621495 6.601230495603728
328 2 8 -2.705721129130753 2.1906884128294255 7.509786267419828
329 2 8 -1.1997481733857593 1.7736393286813221 7.334992955893542
330 2 8 -1.710390559546335 2.945616901201301 8.594590711803415
331 2 7 -0.4418333525480232 3.0322483290421975 9.37140434374575
332 2 7 0.5379802685319508 2.7444598584792836 10.169167123750785
333 2 7 -0.7697781378024556 2.577748340783377 10.563727463779323
334 2 7 -0.3395735229819616 2.0395840530936953 11.355097538363651
335 2 7 -0.29956633168075963 4.025346199145064 11.704734899500542
336 2 7 0.7971322799151204 3.3558090007625183 12.835298518541364
337 2 7 1.3673105167690998 4.77462125687609 12.385769071140187
338 2 7 -0.029165578351460924 3.9121401421121473 13.661122811075868
339 2 7 0.7741853747883902 5.411908582656543 14.310952606816866
340 2 7 -0.0020112041367060718 4.969488927151029 15.583159614417456
341 2 7 0.25712254385400324 5.1669416725001325 17.10522325840576
342 2 7 0.19383695099814147 5.680627860240448 18.51961377279075
343 2 7 0.05272533353877564 6.264882031081062 20.265118827902313
344 8 8 6.9504089814636085 16.95572077436481 -7.417367227385357
345 8 8 8.54753398098835 17.941543824657554 -8.525080526940993
346 8 8 7.3900382810723295 17.52749160794988 -9.355711465093458
347 8 8 7.870527627120357 16.571696311172346 -8.653612665845639
348 8 8 8.942008913061988 16.004272333572935 -7.4482827164388015
349 8 8 8.119802735099015 15.401512091479205 -7.281985680884488
350 8 8 8.27341325422844 14.214068433200486 -7.872877800802187
351 8 8 8.799374533999531 15.465026864701255 -8.428099755292688
352 8 8 7.646665164032688 15.268755909616205 -9.776849434506572
353 8 8 7.8735540944109275 14.428874519005545 -10.91551519004372
354 8 8 7.679958166149499 15.003176664871585 -11.948205419818848
355 8 8 8.77242472445728 14.037420493252355 -12.067815923695886
356 8 8 8.556771710027343 12.044199394576513 -11.62725542839439
357 8 8 7.779026382738642 10.216225644200515 -11.881436818636205
358 8 8 8.766078604944532 9.44861782667778 -11.333498278888994
359 8 8 8.798458280600837 10.856114399783774 -11.907465680595935
1057 74 8 8.204360762926305 8.331792600942725 -11.755259579071756
1048 74 8 10.424099050625037 7.834403320380536 -10.98423546467206
1066 74 8 11.685040919195313 7.984856208242458 -11.397648560942725
1051 74 8 12.340679056885412 5.664443828519462 -12.652793953996472
364 62 8 9.541332770330355 5.54545067927163 -12.285507808331115
1063 74 8 9.76852926452439 3.890797426146737 -10.2349436890044
366 35 8 8.410867344343371 3.945636264658687 -12.073148803479345
367 35 8 9.538267306046306 2.4805590436636145 -12.08026910483129
368 35 8 9.210802670783627 1.4125522119017815 -13.267876915103933
369 35 8 8.362342592779713 3.042708680739964 -13.1513048581247
370 35 8 7.431390571973684 3.85742310143592 -13.519292834680677
1038 74 5 10.06462697485995 8.24371372169116 -13.637316835832236
1035 74 5 15.224186438934005 6.495058295342526 -16.59328132928592
373 43 8 12.80317653963609 5.129633283341722 -17.523895189699527
374 43 8 12.96422254464449 4.575818770580705 -16.445459043978232
375 43 8 11.739669394749232 4.998938751089291 -17.829702714336985
376 43 8 11.216613330881597 4.3124201498130095 -19.386548817390818
377 43 8 11.734266391075066 3.9449588516638117 -18.409921608981232
378 43 8 12.140467160290894 2.3219692376743386 -17.568700458224853
379 43 8 12.570831995285273 1.0447544280021541 -18.128588838785706
380 43 7 11.708465633062621 1.2125749135943975 -16.657668406468677
381 43 7 11.508030976577096 0.4723457481675795 -17.948434021959137
382 43 7 11.578239419333784 -0.41561502919472587 -18.92539463585501
383 43 7 13.374969945211644 0.5540294076827061 -19.18296713287046
384 43 7 13.497542471800596 -1.2193438727397419 -20.12874953935425
385 43 7 13.009457514207389 -0.2562609165202348 -20.876849683470287
386 43 7 14.814664397969604 -1.4750942755290268 -21.206772933589413
387 43 7 14.907312879497736 -2.84878625965374 -21.629123458760205
388 43 7 16.107909041404856 -2.4120097472602953 -22.950206887576858
389 43 7 17.397197638976994 -1.4374304419378814 -23.20842847996202
390 43 7 17.99604342197865 -0.1950468041228912 -23.103057870112313
391 43 7 17.108569984021127 0.45666484137609786 -23.08299904113473
392 43 7 18.323011772767263 0.15624862313726615 -21.652021526147482
393 9 8 -5.419813939530398 -2.7894892264224977 -17.320871228048883
394 9 8 -6.790640976431026 -2.0268343610747013 -16.784553135364565
395 9 8 -6.232770005632331 -2.8049699460880286 -15.592304879614163
396 9 8 -6.209780360395175 -3.4589556718937553 -14.554583486783411
397 9 8 -6.273676129879891 -4.803987773482078 -13.482720239009604
398 9 8 -6.865159857898683 -3.7921137889615197 -12.236840265550244
399 9 8 -7.800253619072623 -2.8565263093256235 -12.11562381092005
400 9 8 -7.390776959529198 -1.3188351928511168 -12.057428325471788
401 9 8 -6.5062134057440035 -1.5339672159216229 -12.82192465766181
402 9 8 -5.927407797679625 -1.4724486832642243 -11.300649891099658
403 9 8 -5.225709246845972 -0.5351452242872935 -12.684164978120007
404 9 8 -4.74428753658432 1.1100418565396732 -11.736655593216835
405 9 8 -5.138324136968948 0.24961207467865526 -11.362776691512984
406 9 8 -6.326802292683309 0.07516512760869591 -10.03365241447823
407 9 8 -7.505781824009784 -0.10906508605678152 -9.815375907707569
408 9 8 -7.371487973037901 -1.8167240271044147 -9.729865469406091
1010 74 4 -1.3970398026636965 -0.3372824709720012 -9.59588626422332
1022 74 4 -7.376633477312156 1.2317179611748696 -7.766944617018904
1016 74 4 -5.893457607360593 4.289082975615568 -5.647170247688419
1029 74 4 -3.5462448884814046 -3.4763938790406304 -5.7418071789867255
413 54 8 -4.888928709023465 -2.525855355571941 -8.230966092535908
414 54 8 -4.060850859455465 -1.1441022285561115 -8.969750731275788
415 54 8 -4.566243812863994 -0.47552586837806243 -7.151786493074838
416 54 8 -5.854650158133179 -1.5201333735189748 -6.665344896371352
1021 74 5 -8.817883679022911 4.202040024696393 -7.894819450717386
418 33 8 -7.269771365031936 -1.3458386556603694 -5.825036924531764
419 33 8 -7.361756011038666 -2.1838954919665508 -4.658567583811762
420 33 8 -8.392106531440525 -1.974145956008338 -5.146030517589651
421 33 8 -9.098494642005363 -1.241457598642046 -5.5126451657679985
422 33 8 -10.02898348377306 -2.019496913913281 -5.387548949133502
423 33 8 -9.183792492526187 -1.8416096476838857 -6.964073287627604
424 33 8 -10.294741316736387 -1.8589237979125284 -7.299040249528663
425 33 8 -10.697720677286293 -3.0224212508711275 -7.6309334070224795
426 33 8 -10.579396480227386 -4.085636254751785 -7.987710013626102
427 33 8 -11.359141408259509 -4.49449585352568 -7.148415685556436
428 33 8 -12.086400718961885 -5.337536862507834 -7.784371559962987
429 33 7 -12.260807351711316 -6.638082158722571 -9.179406018428658
430 33 7 -13.557560819953459 -4.926508949924281 -8.506104254034613
431 33 7 -13.67548198960851 -5.267922348797859 -7.173404790327345
432 33 7 -12.497247522082612 -6.273026064627402 -6.3931152857571405
433 33 7 -13.110425109716891 -6.709092301562106 -5.686332238011483
434 33 7 -12.362508378407778 -8.069595677314263 -6.44874614274669
435 33 7 -13.702748867185665 -8.043648013917148 -7.180247477776336
436 33 7 -14.506833009528725 -7.821683729591948 -9.008301210356732
437 33 7 -15.835493902830132 -7.789708192892706 -8.661927055388055
438 33 7 -15.882092419833214 -8.484805779290761 -7.322911538332454
439 33 7 -16.0344415495611 -8.140450891412279 -5.828008687174523
440 33 7 -14.71254165170595 -7.842913478345125 -6.166949387049062
441 33 7 -14.170076651785934 -6.232133606628233 -5.351512024164093
442 10 8 -1.0587933379412964 16.244646614093856 0.2481198165304054
443 10 8 -2.0691421963984116 16.699780654294855 0.8209282484131204
444 10 8 -2.6745009946064466 16.227822410863517 2.038861099260649
445 10 8 -2.2951564225095926 16.073100267649515 -0.07661386459050294
446 10 8 -2.810166877217363 14.464934509056345 -0.061258117750104396
447 10 8 -4.436964252542034 14.39692366948329 -1.5078649827041304
448 10 8 -5.059056161033868 13.60027575050168 -1.5272947751239874
449 10 8 -3.8863864956850214 14.058843713031083 -2.996666418868955
450 10 8 -2.1383839459963916 13.346320588434109 -3.71012934344873
451 10 8 -0.9715352960773632 12.231626194052577 -2.4664383981195472
452 10 8 -1.2850406542559374 11.566836671574231 -1.8153845323655444
453 10 8 -0.7183988930946995 10.433199811062753 -1.154131027104329