# Generated from readdy-to-lammps

1005 atoms
652 bonds

10 atom types
1 bond types

-30.0 30.0 xlo xhi
-30.0 30.0 ylo yhi
-30.0 30.0 zlo zhi

Masses

1 1.0
2 1.0
3 1.0
4 1.0
5 1.0
6 1.0
7 1.0
8 1.0
9 1.0
10 1.0

Atoms

1 1 8 -15.432225048604646 -8.329739227323499 -11.673615810821794
2 1 8 -14.994530828407939 -9.63501019434658 -12.412682369882445
3 1 8 -14.359030826267043 -10.246244494763793 -13.293603418927988
4 1 8 -13.633223362755283 -9.219010496500475 -13.31178890220053
5 1 8 -11.907979285985322 -8.750021541964632 -13.76114595739241
6 1 8 -11.263270604621955 -7.834118228528761 -14.649512605383576
7 1 8 -12.327798411862346 -6.95545533632694 -13.499216984924544
8 1 8 -12.980164043129623 -5.507944401256519 -12.266878552011397
9 1 8 -11.500570859866531 -5.97224555205964 -11.646633192554969
10 1 8 -11.432329266148693 -4.710696631590722 -12.273895287475373
11 1 8 -10.783961577528451 -5.4241749635357275 -13.39609033041823
12 1 8 -10.060509526563562 -4.5173756549780615 -12.185267004620654
13 1 8 -9.77891668149698 -5.221134813364868 -13.065254619800024
14 1 8 -8.453913821098729 -5.528442773394551 -13.488289670927703
15 1 8 -8.263304934121779 -6.773600039941329 -13.069754555765222
16 1 8 -7.637413544659434 -6.288782817228749 -11.419578085813159
17 1 8 -6.964785544563761 -7.239761496781822 -10.666035609294038
18 1 8 -6.149049922092461 -7.106750241926334 -9.298968119751638
19 1 8 -6.7119998340230556 -8.300712016673526 -9.219366747561752
20 1 8 -7.997932065760888 -7.699607508310464 -8.971552734597735
21 1 8 -8.583908902129684 -7.471135378961609 -8.067627716935686
22 1 8 -8.268700338274295 -8.371498007130949 -6.68308057001728
23 1 8 -7.774678796893973 -9.945145754853002 -6.627403615817372
24 1 8 -8.46842749395292 -11.405884071233912 -7.520163638735929
25 1 8 -7.445944504334999 -10.307738598136797 -7.807827842894012
26 1 8 -5.837570116875758 -10.544318784757142 -7.845840021851205
27 1 8 -3.9950206692742403 -10.302554936745945 -7.476884148912657
28 1 8 -3.849401308995104 -7.972833454013695 -7.683169500098671
29 1 8 -4.093609841278928 -6.879339898258358 -8.474555809825176
30 1 8 -4.058557846571925 -7.27440526795129 -9.619339973803118
31 1 8 -5.3255692314648595 -8.239791806392532 -9.912572926792253
32 1 8 -3.123454238924314 -8.81973975231737 -11.019378362076749
33 1 8 -2.3634518489290657 -7.824900965589201 -10.453018513122405
34 1 8 -1.7962078744701269 -7.309971313862645 -9.557492444773724
35 1 8 -1.8702880537853326 -8.503561079342484 -11.913666019401326
36 1 8 -1.2943401370905423 -7.927577248664242 -12.880658686448367
37 1 7 0.22679063097434882 -8.759968185432788 -13.066082141126744
38 1 7 -0.25584854637036625 -7.808855326724667 -11.426331973935945
39 1 7 -1.235432248345024 -7.162532686540317 -11.128612980337964
40 1 7 -2.9291467201293555 -7.456241368780059 -12.266363615726286
41 1 7 -4.504307594795588 -7.721637030734069 -12.851382514340383
42 1 7 -3.929712649544386 -6.583566278617826 -12.399670824946158
43 1 7 -4.148464526497187 -6.720782974840886 -13.889385678606617
44 1 7 -4.878098617023548 -5.888231264047908 -12.983473598263044
45 1 7 -3.7095480382432253 -4.835250833880551 -13.61462448354598
46 1 7 -3.0716962416072033 -5.23302216678829 -12.257337319865636
47 1 7 -1.9354002345643073 -3.5472549575890144 -12.635920292032184
48 1 7 -1.7770903716905744 -2.9289337897115635 -11.555966473030269
49 1 7 -0.10775183247646251 -3.803437531224534 -11.065872888371773
1050 59 10 -0.4652634063968909 -2.2612723608206817 0.09946028367956736
51 59 5 0.41431264375994425 -1.8919416256935258 -4.22141337558122
1046 59 5 3.0929797530820324 -4.08221139020185 -1.9215637258331228
53 59 5 -1.0122798436576421 -3.0188689938729225 -1.9370119248496156
1042 59 5 0.8471618108387328 -4.882300532530917 -0.9064632205954057
55 51 8 3.834332711841048 -7.149857759972767 -0.4360432762208886
56 51 8 2.4155357467202303 -6.989724649069007 0.05208176065922418
57 51 8 1.2217254102428334 -6.149402895457943 0.6743783788775525
58 51 8 2.505751752791945 -7.4927390864914525 1.839240338598306
59 51 8 0.7924172170720334 -7.165166498432608 2.405094235853008
60 51 8 0.09740142860709805 -6.164534983963856 2.7232632464873965
61 51 8 0.14209560439999344 -4.832641023241941 3.369429571155841
62 51 8 0.5786903389757404 -4.961629585393228 4.675180796443505
1007 59 4 -0.033268477783603076 -7.024654516129705 5.928670194990087
64 27 8 0.2186878743847361 -3.941565708068506 1.746773845439727
65 27 8 -0.9389083478007231 -3.8870344427710743 2.352011870094135
66 27 8 -1.712495933553059 -4.93803788668885 1.683140465642634
67 27 8 -3.236142338328872 -5.787188232944269 2.782620698481064
68 27 8 -2.337733678081696 -4.898771463457929 4.503761647994069
69 27 8 -0.3966277520331904 -3.578420899451306 4.605562581192139
70 27 8 -1.4429161747212884 -4.983012679806212 5.50575703071551
1036 59 4 0.4912881534110024 -3.6628322384716676 2.9002422447918024
72 59 5 -0.4308672269304245 -1.924363929450005 4.036794781571618
1009 59 4 -2.2551612810809742 -0.04359823927620815 7.658251814798916
74 52 8 -2.8182473274795803 0.9607943547541011 0.6405006792004995
75 52 8 -2.37218713714174 -0.17793025861772765 0.4829221354200797
76 52 8 -3.5471778898052886 -0.07400221861008026 0.7180263870667541
77 52 8 -2.542842908306479 0.5143319045928678 1.6776756551533307
78 52 8 -3.8126194212453033 -0.27438609257189045 2.2104875973222122
1037 59 4 -4.926116212197812 0.8980950780655012 6.054496747481443
1017 59 5 -5.063199257566258 1.2799866891237406 2.8132358926303613
81 55 8 -3.4603664166592463 3.4751933773695782 3.54474039408824
82 55 8 -2.80587468567036 2.9389940644721233 2.278566664585017
83 55 8 -1.6799987519083308 2.8682734598962107 2.3206320152957907
84 55 8 0.17494871745477764 1.9422743665920583 1.6222644885259039
85 55 8 0.44913328125130014 2.0318100373147496 3.0314466232364667
86 55 7 1.3546630151133883 1.950224681004587 3.875213514985809
87 55 7 1.720968355298786 0.34298578762894133 3.039164907753394
88 55 7 1.1000059267644309 -0.7797233472128785 2.518325753333018
89 55 7 1.9368467060120824 0.1894536654089849 1.4787412132631734
90 55 7 1.8335884188738272 -0.8517327739451102 1.2843635467795194
91 55 7 0.36078054329480413 -0.9338105809056688 0.7014396080369876
92 55 7 0.42140886705064046 -2.03115141750861 1.3288075035655762
1044 59 4 0.43810965973271954 -0.32761320396882787 -0.2650792240728335
94 54 7 -0.2928655337721003 1.0017797292315256 -1.6323599623347496
95 54 7 -0.7278137378586969 0.11164379061785912 -1.9051370928354265
96 54 7 -0.8242632108789638 -1.0906694100542358 -0.8040164870388492
97 54 7 -1.9829540351181203 -1.8222065971586061 0.10411273113065564
98 54 7 -2.1286435323278536 -3.3568442792922215 -0.1115772799823353
99 3 8 1.625603050130838 -7.777696515351919 2.3260178568448953
100 3 8 0.6338216969884286 -8.929269301810175 1.0535903696575948
101 3 8 0.44511272830678317 -9.548657784040428 1.9153265884793984
102 3 8 -0.33829453541237825 -7.302138691972245 1.875270761555253
103 3 8 -2.108887728137246 -7.608625878821855 1.8705761224380213
104 3 8 -1.4211832334245185 -7.665796614350417 0.6469654407881192
105 3 8 -0.8673297824243956 -8.83872934575702 -0.5292569817179832
106 3 8 -2.797193466354306 -8.143838273943832 -1.6157285049487844
107 3 8 -3.075572469647084 -7.704018771331845 -0.30853422217401133
108 3 8 -3.435667581296988 -9.279064186473352 -1.289241319949213
109 3 8 -4.9387096376414865 -9.895807349738366 -2.0737163436803487
110 3 8 -4.670795752865956 -9.137527849402906 -1.1349160753424417
111 3 8 -4.9075122026725 -8.175841426191417 -0.38435341807229234
112 3 8 -6.262637508178263 -8.9589507786922 -0.4466148950933451
113 3 8 -5.9162734650258075 -9.805969643526668 0.7021602001405691
1024 59 5 -3.7129223662028252 -12.514496316651112 -0.30142921662150673
115 42 8 -5.190732011528942 -10.314871872410487 1.9697087560310034
116 42 8 -6.49576032145025 -10.538078034398326 1.6601906659491756
117 42 8 -6.137713580464088 -9.33388508211518 1.9532151326611746
118 42 8 -4.413027450040903 -9.578034860982443 1.309054260026129
119 42 8 -5.590519156580295 -8.360367166188048 1.4213315947196288
120 42 8 -6.572506879559213 -8.298826862397508 2.273273463407259
121 42 8 -5.247619838944648 -8.266928409618771 2.9303036913341933
122 42 8 -5.318564701639946 -9.022314483205543 3.721821827505305
123 42 8 -4.152792441820309 -8.26223899321972 4.064218173995507
124 42 8 -3.9936444429452598 -9.506839713840039 2.984193627431777
125 42 8 -3.4697580849900196 -7.969872458972587 2.3383863823727347
126 42 8 -2.6203760555991424 -9.311145337816699 2.435384345409451
127 42 8 -4.007539292792241 -10.713832715072558 2.7178471011444603
128 42 8 -4.067848011482089 -11.628085583936937 3.4166745261136398
129 42 8 -5.278621532100885 -11.880571958984342 4.034228258790927
130 42 8 -5.387524960175883 -12.784504250944378 3.4003210884487967
131 42 8 -6.42870115008309 -13.576201861825515 3.060187472332066
132 42 8 -7.698321782104179 -12.24284531852628 3.250285618557517
133 42 8 -8.833245205962244 -12.67387546954057 3.3948147198078313
134 42 8 -9.5148832406397 -12.884545996197167 1.795856955189971
1025 59 5 -7.020072192938699 -16.288808519847837 -4.861486648110703
136 39 7 -6.333310528498192 -14.162693046036981 0.03614389426173783
137 39 7 -6.1273277089511184 -15.831963816169441 -0.3162614018942548
138 39 7 -5.055349375946912 -16.69244176519099 -0.20701718061502497
139 39 7 -4.206031710284629 -17.55036162581948 1.0983451422279644
140 39 7 -3.223830370499071 -16.061763817446934 -0.4344445608039781
141 39 7 -2.0097820829559305 -16.102813475348793 0.03731493837380368
142 39 7 -1.6706716750314747 -15.051182305226773 1.2399932490318133
143 39 7 -2.15508780140906 -13.8204837016184 2.242462106895161
144 39 7 -2.0706541675639167 -13.243436578880482 1.436197809285391
145 39 7 -3.885271198221933 -13.62178790158459 1.276246577577351
146 39 7 -4.997287405499675 -13.14024398102788 2.0856342643733683
147 39 7 -5.741030991118275 -11.843640185870338 2.787337017756865
148 4 8 -1.7816328961342467 12.230821642532767 18.372974832503914
149 4 8 -0.520706224908857 12.282100727099309 18.20386660564496
150 4 8 -0.6809707874993405 11.475200830858014 19.655224291758095
151 4 8 -0.009591001009313283 10.167123224000509 20.128569053380094
152 4 8 -0.006394568233161521 9.23660449440865 19.03648865535354
153 4 8 -0.5770704407335017 9.68566736873317 18.186551212597223
154 4 8 -1.3685856872187605 8.441779621418338 19.347052341607633
155 4 8 -2.6560297507813244 8.763791971531033 17.997593650730593
156 4 8 -3.424413147649981 8.951745749371472 18.6939268523362
157 4 8 -3.988676244737064 7.798469054063766 19.379463903314853
158 4 8 -3.1658129194667066 7.6792050090024695 17.802035323783848
159 4 8 -2.6382388215170334 7.279938831508906 18.799661690579285
160 4 8 -2.719512139061421 6.002027229387698 19.41986590611068
161 4 8 -1.1867597253615805 5.753519591040521 19.821265880504455
162 4 8 -2.0340986808231802 4.715382090619507 20.49356192544533
163 4 8 -4.1224881402636155 4.899144642445479 19.686311798783866
164 4 8 -4.920080489419524 4.165563346275198 19.984549722010623
165 4 8 -4.482642855824252 5.02781323293027 21.105260421289117
1031 59 10 -4.168759692640251 6.735625546251679 21.67469147258228
167 4 8 -3.3513402222761735 6.74907896269769 22.60498881892898
1043 59 10 -4.480667095914017 7.526734543105113 23.306510221713765
169 4 8 -4.720955060471619 6.307669526118682 23.27209689318741
170 4 8 -4.866003122280045 5.864157387275381 22.249340273619666
171 4 8 -5.63764904583645 4.727342064016473 23.882362514233
172 4 8 -5.123002123993711 3.160050322444795 24.187875683885256
173 4 8 -4.355732789901688 1.927572815350631 25.21413567829978
174 4 8 -4.738550485519251 0.3439575643274146 25.926110334381203
175 4 8 -3.776098774794648 0.5576130455200295 25.48183957617911
176 4 8 -3.624693333596698 -0.5309939540301424 24.71355719586912
177 4 8 -3.9917526995446577 -0.4273472502735969 25.91421533838092
178 4 8 -3.022571960435454 -0.4379433784247736 25.803783564014587
179 4 8 -3.0560923057045235 -1.3081114105022495 26.822630045348113
180 4 8 -2.457131492553439 -1.4306751445183448 27.976338442975834
181 4 8 -0.21703264343260617 -2.15691570006841 28.215305665026843
182 4 8 -1.9403787535024037 -2.3498858300554972 29.244715886103037
183 4 8 -0.7811817746779507 -2.437510246326253 29.23351343677858
184 4 7 0.3439112950412235 -1.0255025738947838 28.602782978528644
1028 59 9 1.4412867282981925 -0.20925213955839117 28.309356718125343
1023 59 9 1.7784370797929197 0.42912732170239287 26.72858686094732
187 4 7 0.4561689596044988 -1.1739776031435598 25.75163717032266
188 4 7 0.604535693176461 -0.7213923387112208 24.696589516617617
189 4 7 -1.0511337203025506 -1.0615967070146348 24.791958022871604
190 4 7 -2.1514356103796546 -2.4603411745188084 23.967735629994664
191 4 7 -2.4978299949457643 -2.954630894206786 25.44195509157125
192 4 7 -2.715014598047452 -4.5702901931018935 25.479380913019845
193 4 7 -2.7574345254240242 -5.353002450341148 23.82202700469308
194 4 7 -3.6302044994527543 -7.256196342621259 23.318881196834237
195 4 7 -1.9715837055204863 -7.082950831440922 23.315147031779883
196 4 7 -2.21293915882904 -6.563123623185181 22.121792210130973
197 5 8 3.6548615087258827 -4.166612882237843 13.274903875723567
198 5 8 2.2034670231307687 -3.3363593216905736 11.23309438218445
199 5 8 0.17438124850443285 -3.460608358414973 12.283201047737725
200 5 8 1.34081752311483 -3.782058067377424 12.45771677309957
201 5 8 1.7376778676476348 -3.4071100584825493 13.536766866550797
202 5 8 1.5903821821235031 -3.09470028910979 14.555569662615888
203 5 8 0.6719109734199445 -3.56822427215643 15.279436734354242
204 5 8 1.8772881645478483 -3.402460163166155 16.781251631284167
205 5 8 2.7384780551458254 -3.3061993027114545 17.569745686224426
206 5 8 3.7366124525254496 -2.84801875655494 17.128649614015163
207 5 8 4.812786440914229 -2.9303403871782203 17.475910656768516
1056 59 10 5.898086513894756 -3.1838464266049353 17.387938749676692
209 5 8 4.478467158456196 -3.20488646308949 16.417839917878442
210 5 8 3.8194301360892364 -3.8726329515936113 15.044174550480044
211 5 8 4.712121497550174 -2.822706373031375 14.067692939518208
212 5 8 5.177277562824164 -2.0467641118527213 13.130302093108556
213 5 8 6.221939041763117 -2.7541085055166743 13.495126745635043
214 5 8 7.12825618822721 -1.7772302808411666 12.992429878485991
215 5 8 6.030822502185711 -0.7522066279235201 14.200261549975057
1019 59 4 5.7231417982607065 1.8240517000532521 12.25557885822487
217 29 8 6.056712751568995 0.5575921829149075 9.739905937380849
218 29 8 6.411054517440247 -0.5004583506929471 9.31474879408127
219 29 8 8.11164929294578 0.38330059660828447 10.382918478486163
220 29 8 9.170338947896932 -0.4672916340960995 9.218803984850519
221 29 8 9.08743893699885 -0.6722304200056608 10.16463306923245
222 29 8 8.16312493869053 -0.18756854310265642 8.972456292810701
223 29 8 7.844165753666018 -0.6130313996842635 7.164242163383554
224 29 8 6.969903239021345 0.4109021915502608 6.595692789030691
225 29 8 7.6257743977374455 1.9643092056085987 6.605790660504317
226 29 8 6.816308239596625 1.2976539253817754 5.933159053984566
227 29 8 5.867962952989373 -0.010560141741658929 4.600786006145478
228 29 8 5.464840457525532 1.045103502241704 4.322618862278862
229 29 8 7.0131075305254935 2.0663324155006384 5.05350086530022
1054 59 10 7.8367404940046255 1.3435421909370988 4.833216902625163
231 29 8 9.406952972667712 0.5861809839652412 5.138461461007844
232 29 8 10.719237342202925 -0.6840693813246352 4.360503243731806
233 29 7 9.784296301111308 -0.6969641039154264 5.58528396639449
234 29 7 10.05026799481452 -2.353603091381442 5.0260126646622885
235 29 7 9.513439783285508 -2.5649542426735428 3.1250953055530903
236 29 7 8.820375326291598 -3.2621246499464807 1.346915037146683
237 29 7 9.765218986789566 -2.9394921455181944 0.6723258459783337
238 29 7 8.46412079558459 -4.453509357569883 1.4992063030519105
239 29 7 6.449702239986427 -3.7868981732956697 1.8647887446088525
240 29 7 6.3596005222232135 -1.9433374494029683 3.3165181590231305
241 29 7 6.082304318826576 -3.5389161648167233 3.0523580843729006
242 29 7 8.029500622929797 -2.7803773737052513 2.309107828800318
243 29 7 7.930150707851182 -1.10827002398088 2.3510585423681167
244 29 7 8.434937191829038 -0.11212824715811946 3.3914081023688305
245 29 7 9.391990682945595 -0.9063084177068683 4.098941448973621
246 6 8 0.13194080747512602 3.1021472209089533 5.442252326936247
1052 59 5 -1.772082475189058 0.26087053710879055 4.629085729257941
248 30 8 -4.354820708334517 1.1817620102838924 3.963194976093157
249 30 8 -3.9859523892638054 2.299479749413322 4.498431909986014
250 30 8 -2.387651345094023 2.677051907876112 4.777419880768948
251 30 8 -2.8243017202952703 3.7888893175866647 4.7890841513962705
252 30 8 -1.728385785821285 3.2442832773530577 4.10923291489156
253 30 8 -1.4369160747270777 3.471928687319463 5.465549796406175
254 30 8 -2.655900119515789 3.3518808309961416 6.33370833348224
255 30 8 -3.2587621432890668 2.2344263602075936 6.203542962719187
256 30 8 -4.684181755170268 3.934020263295974 7.1387198737938204
257 30 8 -2.946079295934882 4.974914318858665 6.015454402080361
258 30 8 -3.653902794064659 5.625858868698711 7.806668038442077
259 30 8 -4.491065901141368 5.553271745101769 9.337011777006508
260 30 8 -4.344704237998886 4.629049806390951 8.553166436700037
261 30 8 -4.080128863992442 4.731808597799948 10.046727834117267
262 30 8 -2.9486326494658366 3.9021743152037613 10.306802590519267
1069 59 10 -3.9241526358120535 3.069109680475616 9.59745331114887
264 30 8 -3.941102296331999 3.7398403399704265 10.455935310356768
265 30 8 -2.9492969488847667 4.4694910563903125 11.18658779130308
266 30 8 -1.8902973196206851 3.841381113724349 10.789877406016602
267 30 8 -1.3910918001055543 2.5858867302946864 11.25237062817532
268 30 8 -1.3622672534479798 1.1871708237946559 11.349073310726933
1034 59 4 -7.453979871336461 -1.8178367053981201 10.049615977522883
270 44 8 -3.9249869704133156 -0.939316316351646 12.614684205288652
271 44 8 -3.5173430623060655 -1.4845650565487338 13.715105280528556
272 44 8 -2.470545588360826 -1.7339788014630635 13.843752354372242
273 44 8 -3.402255085472774 -3.90807707034355 14.207859406010929
274 44 8 -4.032162440783241 -3.8339042559197063 12.755671913278238
275 44 8 -4.769432864229512 -4.5114109787692085 11.780907396488887
276 44 8 -3.1462168764554903 -4.9807633666786195 11.311324460520868
1047 59 5 -4.930585381034012 -0.929552821479486 8.662678236213681
1012 59 4 -1.813852627622965 -2.322029456898929 4.196277650939796
1026 59 4 -6.788291823451375 -2.728433408610179 9.594891234007623
280 47 8 -7.305178002841008 -0.9332654505757334 7.853808724198232
281 47 8 -6.628906020883859 -1.7328305488658071 7.309428471222825
1067 59 9 -4.727162670116242 -2.256683331457041 7.589449149401365
283 47 7 -4.505860253460607 -3.5277459406795217 6.75287091534568
284 47 7 -5.270030484054393 -3.71608900034184 5.211713539679601
285 47 7 -5.572618352796877 -3.0685716890794055 6.080823072248064
286 47 7 -6.761132090001063 -3.7442372646755184 6.017162798600651
287 47 7 -6.873682739086552 -4.544085913956413 7.182749826925143
288 47 7 -7.677376175779755 -4.722481427975553 6.0021511283702695
289 47 7 -9.244788651856584 -4.9640946672140505 5.537369236675075
290 47 7 -8.319229560572563 -6.080044287118204 6.343706632531126
291 47 7 -8.43872338477437 -5.333077448047727 4.852955118907626
292 47 7 -10.465564121218543 -3.268559440769109 3.931269420244923
293 47 7 -10.49418995051157 -2.1282667924470875 4.874223340354901
294 47 7 -9.802952679288273 -0.8719338632106092 4.422187941705498
295 7 8 3.7333586511768866 15.802164053368863 9.096861123056787
296 7 8 3.566843408689729 15.217220534505701 7.379800164474487
297 7 8 2.584376219301284 14.19950159564182 7.693649836111847
298 7 8 2.13966590916378 13.31318493461103 8.26265941803712
299 7 8 0.6775986755928776 14.640447697987026 8.269868727670909
300 7 8 1.6830173534351982 14.477099051922389 8.148106110885866
301 7 8 0.8955488808998396 15.19327110181304 9.252205343237252
302 7 8 1.2774810740030769 13.844844913285298 9.239398621750498
303 7 8 0.4744259384057859 12.919583934038188 10.527891362730516
304 7 8 1.4748806130710619 13.240568810341527 10.862709059043997
305 7 8 1.1242522229613434 11.860295829907217 9.491911790934523
306 7 8 0.5054719051097578 10.743557171935999 8.931739236679427
307 7 8 2.1732024643834382 10.88566964045547 8.817287641855927
308 7 8 2.6638976047796823 10.910774088885589 10.34299195666087
309 7 8 3.555132905210799 10.034175844842503 9.715126479724363
310 7 8 3.4514717366280436 11.723098904265335 9.975289886762324
311 7 8 2.559498878672395 11.65601774993653 11.233720840771548
1011 59 5 5.144134068617683 8.333748922170233 8.72093522986909
313 43 8 2.637241969397152 8.559900474910734 8.946243750344825
314 43 8 1.813282775266296 7.292982447012016 9.41008761403823
315 43 8 3.0437379059312555 6.506113246393989 9.97196613680116
316 43 8 2.6391841170933192 5.838167699308054 8.600365094821038
317 43 8 3.556662126747595 4.677351451064498 9.42657985620365
318 43 8 3.639318236111527 3.1175277236762438 9.443061003787662
319 43 8 2.9789723603127043 1.523837456209413 7.894758082623342
320 43 8 3.5910326355583666 1.2969578695056556 5.988598257082978
321 43 8 3.6751433254769115 0.9365646742004349 4.611540980113848
322 43 8 2.6354748487463704 1.9618916738451968 5.797157915933312
323 43 8 1.3967275491668425 2.579195272196076 5.435270221617679
324 43 8 1.3157468826342953 3.033188037912843 6.5365706032038995
325 43 8 -0.34979131536698715 2.9428360535822935 6.547245870506779
326 43 8 0.12120503736965037 4.675061980902993 6.447337079310992
1064 59 10 -0.3052731804918208 3.9766417654480612 7.476052870456985
328 43 8 -2.4773108189583803 3.376614679665055 7.830422281256285
329 43 8 -0.8282366524736476 2.936305850610762 7.552163676174709
330 43 8 -1.2915926930694446 4.096544634005944 8.115384960095927
331 43 7 -0.18596708536821843 3.944405602496348 9.242743372432631
332 43 7 0.466470337621066 3.4176408500271185 10.123115781695201
333 43 7 -0.23345619975884963 2.4875432349633684 11.059856974311762
334 43 7 -0.2326021822430445 3.119745866635399 12.067918774739208
335 43 7 1.5286369980450958 2.5561244349135266 12.117125369827075
336 43 7 1.9030179181648073 3.911427385759792 12.66217383934107
337 43 7 1.4013933955508306 4.33518135887219 13.79401858333534
338 43 7 0.21101926600127785 5.087129558486135 13.65268611383046
339 43 7 1.1225499474249228 5.4320574111630515 15.271809347313733
340 43 7 0.29107077742314774 6.3763485013458805 14.9713118045953
341 43 7 1.1537528559424381 6.130729982539444 16.782770025083497
342 43 7 0.8822371139408757 5.622612323199782 18.39889165824868
343 43 7 -0.5737363446886418 5.9288374319280415 18.92014065186724
344 8 8 7.488527668309808 18.53140428527096 -7.4188382802724835
345 8 8 7.412192613844626 18.672877002568985 -8.944490703479874
346 8 8 6.457596451603061 17.146765373794707 -9.056573387643251
347 8 8 6.336738501941049 16.652816481708587 -7.852822366762474
348 8 8 7.715810810526898 17.536713311883783 -7.6960475281433
349 8 8 8.095815375124092 15.843775286568965 -7.888408737001288
350 8 8 7.691894953632735 15.185795092004769 -9.256490712606281
351 8 8 7.600475571195158 16.195964786405955 -9.0039491772853
352 8 8 6.953551281839632 16.36024016374302 -10.288486133825062
353 8 8 7.519895121759749 14.981191868530182 -10.596686552801454
354 8 8 8.240043355612393 15.831268377594544 -12.391729759038911
355 8 8 8.548876736819874 13.522439627298056 -12.053180017115773
356 8 8 8.629709767957548 12.226214749244441 -12.439242824287646
357 8 8 9.118237119754674 11.008359734875247 -11.78631133868619
358 8 8 7.990303158931377 9.970043377405206 -11.000339546252082
359 8 8 8.992552862173714 10.31772553198194 -10.22627482277294
1057 59 10 9.431335946494842 8.730886669788848 -11.109172438805015
1048 59 10 9.916837733271436 8.5520188743166 -12.345397021838345
1066 59 10 10.93247139943708 7.352600094955436 -12.133437570008374
1051 59 10 11.131441374738946 7.038530060678817 -13.401051055915511
364 8 8 10.325205370885772 5.906268399150916 -12.084542047751475
1063 59 10 10.718196814540327 5.025198960142897 -11.074925955411377
366 8 8 9.866100186963466 3.6348186354869503 -10.937022615285121
367 8 8 10.962752795137499 3.5767694895458986 -11.338914202702185
368 8 8 9.866426261467273 2.908180615987931 -12.717092388511222
369 8 8 9.21342450222775 2.9533491643230305 -13.763202440143989
370 8 8 8.60649990136723 4.490764237027515 -13.628375925617108
1038 59 5 9.79756807952257 7.61312939521334 -13.982745821210479
1035 59 5 14.028869480077953 5.191977580612475 -17.039965877961397
373 40 8 12.977436464638973 4.776109542431374 -16.065197561120353
374 40 8 13.02047956366033 4.121290328192254 -17.390469034741947
375 40 8 12.833332089777892 4.529512842924318 -18.438752541794187
376 40 8 11.420006647562147 5.016202076603375 -18.127725791225384
377 40 8 11.530501242195493 3.140552604507268 -17.857892773002728
378 40 8 11.64025464489806 1.779622452190966 -17.41874446861249
379 40 8 13.038027933513847 1.767682688606141 -18.256750521223356
380 40 7 12.721249981055005 0.8826580303667414 -16.346766987799544
381 40 7 11.881251162638009 -0.1834620558609397 -17.485114328165537
382 40 7 11.837996445405679 -0.25899356509722987 -18.755295019090955
383 40 7 12.691569607940743 -0.35892047403528093 -19.584824908174404
384 40 7 13.665844863640253 -1.3221007726614022 -20.36393468338793
385 40 7 13.294409458758615 0.19114581030772534 -20.671888030268562
386 40 7 15.165090114311685 -0.17120540216552044 -21.03761697263551
387 40 7 14.971513891301562 -1.3540936223324163 -21.95592127993849
388 40 7 16.24272627777977 -2.836127939704718 -22.95681428088147
389 40 7 16.936456341824904 -1.97005010905847 -23.265530416202232
390 40 7 16.14041629435877 -0.8312655226528772 -23.401587118876762
391 40 7 17.005745285076404 0.9297452729220408 -22.72721590808807
392 40 7 17.736685319664897 0.5626713717690704 -21.57260859698993
393 9 8 -5.178560174982059 -3.0676527139788554 -16.049926784809855
394 9 8 -6.336404611630144 -2.617253902016664 -16.370268886769395
395 9 8 -6.042003246741402 -3.804408716221681 -15.057913524561254
396 9 8 -6.995408973443195 -4.657020139070977 -13.703236491933803
397 9 8 -6.414980836046517 -4.402585991342455 -12.834963160350064
398 9 8 -7.019612919511347 -2.639494192888485 -12.386859635834933
399 9 8 -8.5889556422878 -2.6355495150284973 -12.835760571014637
400 9 8 -7.6339753609455006 -1.464682154514648 -12.123043916891133
401 9 8 -6.913910673793124 0.17663444033438266 -11.849032786005903
402 9 8 -5.862865821050798 -0.7264517678777737 -11.747142935327753
403 9 8 -4.800437742799947 -1.1016312427883812 -11.366440470109234
404 9 8 -4.306928989143514 0.39672420105999545 -12.194005265221096
405 9 8 -5.629223401973853 1.394267140849097 -12.304615500543918
406 9 8 -7.099117072339981 1.0833843610153504 -10.253662653269371
407 9 8 -8.076851038836912 0.30464706586142287 -9.227350098534682
408 9 8 -8.35488830067297 -0.7516352564039297 -9.158559861492996
1010 59 4 -2.4638810936769047 -0.1295959118012582 -10.416348524952598
1022 59 4 -6.90097409309967 1.1254640945105667 -6.818429827761067
1016 59 4 -6.234171166387136 4.463193322028844 -6.262332583458692
1029 59 4 -3.846907045891298 -2.28051756352507 -5.551556140037928
413 49 8 -4.062971668544086 -2.8887127776463535 -7.526080583377018
414 49 8 -4.216801599434744 -1.4995643990522618 -7.302745578740317
415 49 8 -5.501537504131955 -1.5671795298446176 -6.669931415296645
416 49 8 -6.71446144328795 -1.954937269513989 -7.5890499188889455
1021 59 5 -8.933008062118523 2.616650697763504 -8.05674991752761
418 31 8 -7.658700006524561 -1.342276014163992 -5.332760766602262
419 31 8 -7.1840164878646675 -1.7573240799363188 -4.135006148852232
420 31 8 -8.437006048575428 -1.6090516603351832 -4.054535598714883
421 31 8 -9.664996213239062 -2.708495705218354 -4.296650361945664
422 31 8 -10.722087857261817 -1.9951514233644998 -5.734212958095019
423 31 8 -9.727553803050219 -2.364209899137975 -6.586764699429257
424 31 8 -11.535363159629224 -2.034642026245147 -6.729719603776723
425 31 8 -11.071177252953404 -3.074630306210303 -6.51570889167981
426 31 8 -10.298499524131763 -4.610126895743168 -7.61911325460522
427 31 8 -12.035809247963774 -4.335938673323465 -7.939335839137157
428 31 8 -12.33465037183712 -5.342473682392132 -7.420728517194899
429 31 7 -12.91895542879702 -4.810608462612559 -8.419233644375627
430 31 7 -14.007750483547673 -4.989471793041273 -8.26311937583412
431 31 7 -14.37526094940666 -6.0595283724732205 -7.736039712677763
432 31 7 -13.238192397679867 -6.292901622968709 -7.399777967495861
433 31 7 -12.62215435108687 -6.783611876202029 -5.800569515049304
434 31 7 -12.447581948269493 -7.365771709224687 -7.169168091827969
435 31 7 -12.791085623949188 -7.169576999446866 -8.457801095054036
436 31 7 -13.960656779890847 -6.164368952730823 -9.06627040138374
437 31 7 -15.221260473256716 -7.0421022384807275 -8.946336628452823
438 31 7 -15.391024152814229 -7.661181528404978 -7.252948380105099
439 31 7 -15.406845877238737 -7.513230493700204 -6.155430089754127
440 31 7 -15.070104449976371 -8.459323751081268 -5.0778265168858665
441 31 7 -14.848934582606097 -6.7732327815169615 -5.604679232508077
442 10 8 -0.9294144023148413 15.53332957939536 -0.10467376361894838
443 10 8 -1.1545745399217628 15.91244455174977 0.8264009338460027
444 10 8 -2.9302653726170007 16.12187351163138 1.3255557354495746
445 10 8 -2.8676171186726047 15.29815174011936 0.3984080718548891
446 10 8 -1.8775688646761923 15.132380449325602 -1.3170324977617718
447 10 8 -3.5760316692219094 14.687924361395455 -0.39187552899309225
448 10 8 -4.825293927046397 14.405477662880571 -1.4261624706937934
449 10 8 -4.036527605317987 14.22491214955264 -2.7033705064808315
450 10 8 -2.9547328259601824 13.25689577702756 -2.938258037560048
451 10 8 -2.125937913812102 12.879907424405967 -1.694774203613042
452 10 8 -2.619212142454068 11.694885494125437 -2.1934341004664204
453 10 8 -0.6776202527825784 10.317749014214078 -1.5758157276734435
454 10 8 -1.6592801481699162 11.59478596333611 -0.9915990320535113