# Generated from readdy-to-lammps

1005 atoms
654 bonds

10 atom types
1 bond types

-30.0 30.0 xlo xhi
-30.0 30.0 ylo yhi
-30.0 30.0 zlo zhi

Masses

1 1.0
2 1.0
3 1.0
4 1.0
5 1.0
6 1.0
7 1.0
8 1.0
9 1.0
10 1.0

Atoms

1 1 8 -15.725641317579017 -8.660624695324875 -12.241728374050167
2 1 8 -14.75045968942212 -9.746578946477111 -13.126084887677546
3 1 8 -13.403528667558101 -8.713869279452785 -11.805113419700687
4 1 8 -12.900184179817746 -9.53444244794456 -13.262475999749572
5 1 8 -11.607491050407797 -8.487443406172014 -15.008655398819293
6 1 8 -11.41588372835133 -7.592454666156377 -13.937137827486447
7 1 8 -10.961009070553137 -5.884764011720265 -13.751788629967727
8 1 8 -12.171398301605118 -5.232187924575717 -13.412216812238631
9 1 8 -11.969082555092927 -5.82416940336775 -11.80872983324242
10 1 8 -11.107210147384144 -6.213150617802861 -12.781935744229923
11 1 8 -11.172035379905289 -5.055140277186593 -12.931518421890221
12 1 8 -10.574613434184 -5.415051663418886 -11.355491387734467
13 1 8 -9.276401898070228 -5.482625482674328 -11.96795510187453
14 1 8 -8.807888586056194 -5.641175186605124 -13.04064553446626
15 1 8 -7.293258194883553 -6.743824821115256 -12.852271276052955
16 1 8 -7.279731002701154 -5.935929289326358 -11.698041920204291
17 1 8 -6.889828113601305 -6.351215198940467 -10.507646874123466
18 1 8 -6.452197480052808 -7.484596281524354 -9.748102848632902
19 1 8 -7.406124303913191 -7.842410691319344 -9.87467882250196
20 1 8 -8.64958831318913 -7.231557217886802 -9.552609622542045
21 1 8 -9.80384252722536 -7.8427587083764525 -8.010825073511452
22 1 8 -8.1765818643208 -8.64076973579423 -6.90220789710382
23 1 8 -8.738327953705015 -9.235587495095857 -8.404932083621592
24 1 8 -7.517650374023093 -9.956681441669971 -7.351660653092392
25 1 8 -5.842467801560465 -9.143281289802589 -8.173614743864215
26 1 8 -4.415846515006747 -9.097993770358878 -8.370292482061089
27 1 8 -4.287924008259039 -8.19064893962498 -7.619265008330015
28 1 8 -3.7359832595481413 -7.331729839332845 -8.059614009155213
29 1 8 -3.549491458965366 -5.9903582299358 -9.17822067239188
30 1 8 -3.2885812096772886 -6.85664185853703 -9.673445691350123
31 1 8 -3.806015070525328 -7.770212310520823 -10.251260454970165
32 1 8 -2.593558766497954 -7.218027710068245 -10.912225936398363
33 1 8 -2.0977733877654923 -7.020142882638527 -9.784797719160059
34 1 8 -2.0352793405206633 -8.101436645793912 -9.511962381430484
35 1 8 -1.1588144959721969 -8.729021398086706 -11.269729592556844
36 1 8 -0.8398605660318071 -9.051592348490528 -13.28407411591276
37 1 7 0.44443036146734766 -8.07534921361122 -12.625494696642534
38 1 7 -0.3842902151449981 -8.082169191288735 -11.60311262174667
39 1 7 -1.504247887925881 -7.748033272148743 -11.186212459427457
40 1 7 -2.5203260347492824 -8.943416250148408 -11.383676406457205
41 1 7 -4.616460728842118 -8.442233780951595 -11.895490539755825
42 1 7 -4.700905761224244 -7.0632051674490794 -12.183554867831875
43 1 7 -4.724988834262369 -6.857490823835294 -13.250399251078194
44 1 7 -5.338299974621446 -5.357364893446551 -14.12406891640156
45 1 7 -4.020203388327781 -4.101455200815962 -14.710425386984522
46 1 7 -3.0768545729156136 -4.353127506685756 -13.646564761407229
47 1 7 -1.3798816289524083 -3.4784138878130832 -13.946604775354412
48 1 7 -0.5027834565148753 -2.778184547214992 -13.94261901579694
49 1 7 -0.9286166131479138 -2.794585913854594 -12.030535918886965
1050 65 10 -1.1334808894693986 -2.191347772747195 -1.4359250446044252
51 65 5 1.2042366572475152 -2.505740704806274 -3.698924586668093
1046 65 5 3.5110787185388075 -3.465839141013991 -3.6019745607215756
53 65 5 -0.05491286327587894 -2.7786816705832065 -1.8367884204747773
1042 65 8 0.15057631145507644 -3.1539947957918333 -0.03638353250961186
55 55 8 2.9529710861731098 -5.063695404509071 -1.0465425435362659
56 55 8 2.7265127927948263 -6.490930898190397 -1.0024163824061803
57 55 8 1.7388968069906883 -6.655436101621918 1.4165570092950517
58 55 8 2.043326576285363 -6.355265768521811 3.083069022427662
59 55 8 0.9612752130289695 -6.247089284913854 2.9757875732071444
60 55 8 1.1453845912434029 -5.537800452637394 3.8560995735081995
61 55 8 1.0071697690825916 -4.257578017028239 3.3781832851300586
62 55 8 1.2582338106525999 -4.201868829478359 4.9535116285970435
1007 65 4 -0.6370807675316833 -6.31653415182353 5.748344781472155
64 27 8 -0.4234213221794362 -2.8159344551832257 1.7982491749971423
65 27 8 -0.10574421251306412 -4.487756707091812 2.28928044225456
66 27 8 -1.258736275564654 -4.979993808305171 2.101743321974235
67 27 8 -2.4077821243523423 -4.39710540212154 3.1461101259739643
68 27 8 -3.556478463134597 -4.904094886972832 4.308115246684037
69 27 8 -1.7068284092719932 -4.083448241081857 5.014248251617172
70 27 8 -0.07730228572198797 -3.2682470132350514 5.636424600682056
1036 65 4 -0.8006096212059767 -3.6306318373919204 4.369871585759711
72 65 5 -0.28491981694210067 -1.6759579114464165 4.530264944014536
1009 65 8 -2.5850158534993897 -0.5892425751928385 5.083351626380247
74 57 8 -1.3751273891422084 -0.2231236430531863 1.051283309337778
75 57 8 -2.4569285864670363 -0.34775684472088014 1.9333442226013493
76 57 8 -3.1568348658801946 0.4493845965367676 1.6322349138672703
77 57 8 -3.6735039406796575 0.3323539854867335 2.6163922637238834
78 57 8 -4.592477254028987 -0.5618524223448611 1.696947752652772
1037 65 4 -5.962122192141441 0.5051067078523086 5.644595035965484
1017 65 5 -4.507741991655095 0.8583243270998964 3.530472936184731
81 60 8 -3.5362518899927293 2.6347295782363687 1.9877632324133416
82 60 8 -2.3821262924881106 3.3752846865396005 2.2636451989601034
83 60 8 -1.3779711394305083 3.8685503528081155 1.8905823310847178
84 60 8 -0.723709097423381 2.8701522419461893 2.0839612701938237
85 60 8 0.37906246680593275 1.3857639999312277 1.675656482417844
86 60 7 -0.1885354257394153 1.0423734475392936 3.8396562337366573
87 60 7 1.1021074071624677 -0.12647873365792417 3.54786049952901
88 60 7 2.353876800528309 -1.0864435110627637 3.523212489901889
89 60 7 2.0107382542734036 -1.1045969345288866 1.788285545427141
90 60 7 2.044899437056202 -0.5726690761167941 0.29386013858418925
91 60 7 0.5948778711063497 -1.1119196384250842 -0.43267555779630207
92 60 7 0.049579398133450185 -1.3801114790715598 0.8625441708546498
1044 65 7 0.08956984911643935 0.4426541972642949 0.35034338335466253
94 59 7 -0.3643304174524488 1.1640319116294144 -0.39217693545825294
95 59 7 -2.425445762180882 -0.27412390279754234 -0.9519929708560174
96 59 7 -1.998695149088411 -1.2531719099198468 -1.5968917331036419
97 59 7 -1.7236563518831836 -1.667510372839562 -0.39912428440284475
98 59 7 -1.968531955076862 -2.8641517619050028 0.12107018693073372
99 3 8 1.3025963997295331 -9.85952125373132 2.2145454379541385
100 3 8 0.599287476518472 -9.210644101840408 0.8332707596197031
101 3 8 0.734235004006734 -7.577436403426518 1.0584911651033062
102 3 8 -0.43244844248258923 -6.411315705771712 2.205290338404773
103 3 8 -1.4266310619427802 -7.011019247765544 0.8686228855021352
104 3 8 -1.200831547322515 -7.048332112383827 -0.4292625007412237
105 3 8 -2.6234265423712033 -7.534254470903021 -0.5677065443668453
106 3 8 -2.104727373995915 -7.691767815472528 -1.629197324378769
107 3 8 -3.0982445560307057 -8.332405710013665 -1.9112790157738038
108 3 8 -3.663038217304681 -9.274511288759651 -2.96196520860994
109 3 8 -4.806179635079494 -8.700275134123192 -2.2755929502779773
110 3 8 -4.881023327024602 -9.525633489234174 -0.9111281074909872
111 3 8 -5.126024843078193 -8.53267215562392 0.3449182286570192
112 3 8 -5.79618312647786 -9.520855589815639 0.8907438082241811
113 3 8 -6.968298100370075 -8.656192130421873 1.600359755801845
1024 65 5 -3.9201542173241446 -11.562816896903396 -0.5442443944334485
115 44 8 -5.961375740079578 -11.987852344083207 1.8361812278054412
116 44 8 -6.124910989827266 -11.131979878634963 2.5471091737254827
117 44 8 -6.046063091143839 -9.991591392869232 2.1154257420132736
118 44 8 -4.559954135344101 -9.098294210958228 2.0025405133773204
119 44 8 -5.996804847148915 -7.935025608883737 1.335437040353081
120 44 8 -6.587791787450136 -7.463486952241281 2.7792547038805857
121 44 8 -5.644587502969723 -8.479928319487373 3.1180674650204647
122 44 8 -4.207624578480203 -7.840531197586366 3.647398633643874
123 44 8 -4.281192837549535 -8.216683392223773 5.351698147280328
124 44 8 -4.569671561422498 -9.004237937406009 4.439716177174495
125 44 8 -3.520611688366452 -9.014033698218826 3.4909721012672192
126 44 8 -1.9944695116035172 -9.112545682676997 3.1283624920805018
127 44 8 -2.250433222957077 -10.387950519512996 2.7685611505006222
128 44 8 -3.6338421288766103 -11.593754626914816 3.4530895807726556
129 44 8 -4.609155185739402 -12.341708258344001 4.601803324968898
130 44 8 -4.739265824139735 -12.290941590631867 3.2009993782426895
131 44 8 -6.168918950296284 -12.825771078371947 2.6846242142033283
132 44 8 -7.2263889074035115 -13.103364530792284 3.192448948264008
133 44 8 -8.474624913810487 -12.20509726003602 2.8985883095025184
134 44 8 -8.667586575813987 -13.318663395764705 2.6280945316177173
1025 65 5 -6.794535157507811 -14.802451744060399 -5.251176059148156
136 41 7 -6.868720482612796 -14.163851661364147 -0.022278603148172888
137 41 7 -6.246281215739122 -15.790226557486992 -0.7487422245480406
138 41 7 -5.985519944663023 -16.579609268076744 0.6782433705317625
139 41 7 -5.469957307147014 -16.6639397276189 -1.1731617555065594
140 41 7 -3.9055108061404895 -16.586664134257187 0.4536937225446831
141 41 7 -2.6678450290762714 -15.589368662049264 0.5126429688666186
142 41 7 -2.476299769550517 -15.225636274053892 2.710774244038762
143 41 7 -1.93271245559081 -14.477797614066349 2.1588168059728203
144 41 7 -2.8166694166721187 -13.67300352134803 1.8024319494654284
145 41 7 -4.1235656082031085 -13.474561308873284 1.7499910632512066
146 41 7 -4.3473902354921625 -13.253652271255982 3.3111744733956163
147 41 7 -5.585207081533736 -11.585060059563544 4.334875376727959
148 4 8 -0.7750997816452145 12.160868970981026 17.889114503502988
149 4 8 -0.7597620683699186 10.397181534479722 18.3991507636289
150 4 8 -1.4165686763997174 11.203258448377607 18.20487162509982
151 4 8 0.06333660906350451 11.08827588612546 18.51164626227126
152 4 8 1.1833422461425134 10.017230794395282 18.060020890686992
153 4 8 0.7742939466991469 8.947414678113542 17.456391638721524
154 4 8 -0.6172783939539754 8.573178673435994 18.121021915492562
155 4 8 -2.7152205138437124 8.88306897371398 18.048283771473553
156 4 8 -3.0701802536043425 9.123801957872576 19.005254387433663
157 4 8 -2.6700463853013794 7.673358030982737 18.322206517585265
158 4 8 -2.6882417097354177 6.856082525255595 17.48883222434659
159 4 8 -2.5509172961915185 6.927490855920119 19.440252141151312
160 4 8 -2.134181747740659 6.423317372654476 18.336313157827934
161 4 8 -2.223960046475309 5.636036961928858 19.535671943464852
162 4 8 -2.326244937247831 5.468202666818248 20.909089477566507
163 4 8 -3.1138093709178776 4.388815956921915 20.854469859793145
164 4 8 -3.7901947823048534 5.143935705458771 21.140397940100982
165 4 8 -3.5034135864426745 6.545808310565787 21.069972882145667
1031 65 10 -4.491662669064367 7.157283965676327 21.18664869738176
167 4 8 -4.33776866054711 7.792523570326994 22.424352530005944
1043 65 10 -3.99571701670542 7.584375434366144 23.701506295442243
169 4 8 -3.590475376938957 5.705246284220563 22.91403449964828
170 4 8 -4.715548527132795 4.6851202912033125 22.836404434610238
171 4 8 -6.026379871270752 3.943595424193952 22.870531364219534
172 4 8 -5.29990423659714 3.1512494048920208 24.93903624003349
173 4 8 -4.505194761803969 1.911127831121206 24.964242214216764
174 4 8 -4.441634373156248 0.6496514651372426 24.892966138043473
175 4 8 -2.878610932910108 0.9308788971330404 24.815460287693742
176 4 8 -2.16089834450805 0.09798238825431949 24.5497582769103
177 4 8 -2.5691088543626517 -1.5695835623380971 25.223937559050214
178 4 8 -3.0391269925914433 -0.8936600459802642 26.752940697988976
179 4 8 -3.5995539247408086 -2.283309572478829 26.818240719839956
180 4 8 -4.010348268715051 -1.6758098533864487 27.554625121194373
181 4 8 -2.3016975413479694 -2.744203387892424 28.294774296702048
182 4 8 -2.43471446560067 -1.2808145060975942 29.24267376066271
183 4 8 -0.9689488239716916 -0.8897540421232193 29.425394946616585
184 4 7 0.09122294957914744 -0.789573724501547 29.08147492434399
1028 65 9 1.8269623868017808 -1.3360218880808978 28.56607368069815
1023 65 9 2.188052408113782 -1.0073724913829347 27.1962901267514
187 4 7 1.9943068683488077 -0.9216769807674211 25.753305966348048
188 4 7 0.004625433273718462 -1.572141690709687 25.713766745468106
189 4 7 0.0314009398300295 -2.0131063425583404 24.526296248109904
190 4 7 -1.7323131600611443 -2.088622364609159 24.4589210047401
191 4 7 -2.130623333790084 -3.867238048918936 23.99352780759776
192 4 7 -1.812848541125365 -5.344260909195959 24.0673275031077
193 4 7 -2.812815068309534 -4.639530108104123 22.66002351340587
194 4 7 -2.932373656896206 -5.984129211226261 23.005031037694124
195 4 7 -2.7540334290816526 -6.902116173955784 24.560501584925458
196 4 7 -1.5882150258713323 -6.083667897993934 23.243116753991412
197 5 8 2.3133484526022023 -2.990841403768251 13.268737805945069
198 5 8 1.6593275122869817 -4.411206353497021 12.913542150371365
199 5 8 0.8646123058007126 -5.145295133797442 11.936420156562384
200 5 8 0.8785515241673206 -5.257727199560302 13.241401474318847
201 5 8 0.6537344754356088 -3.85653191898706 14.436011008898358
202 5 8 1.1167697892166362 -3.031629141317651 15.092898787819891
203 5 8 1.9646977563346693 -2.5611901051882096 15.816963063393985
204 5 8 2.4928972253850583 -2.953293912393764 17.377413232090888
205 5 8 2.908612639026178 -2.157844963209546 17.923894491176416
206 5 8 3.5511560468861822 -2.1010189047773755 16.797260203803578
207 5 8 5.168525323309788 -2.7062037332588593 17.567006719662533
1056 65 10 6.312495359844216 -4.221127057087875 17.278749372937476
209 5 8 6.319137661776956 -3.1211727923239048 15.930426046137821
210 5 8 4.663340479786105 -3.134060190914245 14.792691991734955
211 5 8 5.350957719380208 -2.0494841539429127 14.300191912131144
212 5 8 6.541536549739366 -1.4988984283928855 13.362502275265113
213 5 8 6.175763897940597 -2.434501279962356 13.21155300896521
214 5 8 6.29245503910328 -1.4743057719280415 14.539802467729716
215 5 8 6.59220446109628 -0.46140858597882206 14.505490376750156
1019 65 4 5.37474284894762 1.4138979517682582 11.892418285532376
217 30 8 5.876798774124448 1.1556079725933923 10.786771891742982
218 30 8 6.352179654399114 0.5076642196108064 9.369343228395527
219 30 8 7.727208538618007 1.153765423937596 9.033526212343377
220 30 8 9.076748530446228 -0.3996208750108431 9.280703496295315
221 30 8 8.03800274605225 -1.0590350839060645 9.493182897462908
222 30 8 7.7949755668204865 -1.4733957655558154 8.30867467119666
223 30 8 7.301362642654998 0.12081844688340314 8.812928238265105
224 30 8 7.647649002345554 0.2425280077265988 7.674933971784304
225 30 8 7.79044701809048 -0.2758712538140685 6.761682027139862
226 30 8 6.652712495698185 -0.05077176243978741 5.494810788404062
227 30 8 6.58085201931569 -0.542306105412009 4.208677540622179
228 30 8 7.2039462491211825 0.2751519818760638 4.607299332888455
229 30 8 7.831105047522555 1.1386028640031676 5.898364174491108
1054 65 10 8.681548345415921 1.5038811458458343 5.148804304677655
231 30 8 8.671549412617482 -0.0879518886359967 5.5029408348707705
232 30 8 9.393342795728845 -1.5433278545293485 5.357364232482866
233 30 7 9.547706245044887 -2.710154811077737 5.067918402475484
234 30 7 9.176502471050439 -2.33832295060306 3.507218517075869
235 30 7 9.644319096609381 -2.7496179954473834 1.8050027631582108
236 30 7 8.335798068649275 -3.470080370968778 1.7986342266671937
237 30 7 7.598201060581039 -3.8362415035861006 0.6999360306083005
238 30 7 7.688857223491408 -4.711928139079737 2.0728369804404063
239 30 7 6.557652919251858 -3.0042425068375844 2.188331975097448
240 30 7 5.903536890847184 -2.2546573472663445 3.5356178931391646
241 30 7 4.706996168075729 -1.9986817746515841 3.0246164900849104
242 30 7 6.356174086037339 -1.3857633590300567 2.5762498539356224
243 30 7 8.368901672974852 -1.8394827362099082 2.453014007658918
244 30 7 8.12203265170278 -0.7967303289621472 3.678529561188866
245 30 7 7.526753018755108 -1.1088979837579853 4.881264584255561
246 6 8 -0.1960209589466153 2.6664043939557254 4.1163098135785825
1052 65 5 -1.104848349277867 0.24802330541797651 4.02533507971189
248 32 8 -2.9471090627687424 0.718215725190527 5.140178394793269
249 32 8 -3.069182509666946 3.280807611096013 5.034320588762816
250 32 8 -3.3917620235234667 4.429422498054115 4.850120860940444
251 32 8 -2.0222424840745648 4.894313210870489 4.181667247097594
252 32 8 -1.3477949738438117 3.6686131607247527 3.5000518131907477
253 32 8 -2.0224398300943007 2.9049225668429206 4.813694029670752
254 32 8 -2.20747928269166 3.5086319114911153 6.087744834085118
255 32 8 -3.1670412572369044 2.797785824928475 6.184158143404006
256 32 8 -3.9136038043424644 3.586858215603568 6.53467540446535
257 32 8 -3.313001886493986 4.877403303799102 7.713974944267124
258 32 8 -3.8891199591001206 4.9369650987407026 6.732508594905664
259 32 8 -4.213842451743234 6.043483381009732 8.08515866988275
260 32 8 -5.326037086791177 5.37404991149074 9.241784086827863
261 32 8 -4.035405697099552 4.609177352056385 10.181165334188249
262 32 8 -3.2348140356635895 4.893537362445891 9.499331583666685
263 32 8 -3.193620256945826 3.991346150202506 10.077232170004535
264 32 8 -4.2799941981582865 3.481242422711127 10.174687229954698
265 32 8 -3.7179660953688805 4.085497485071927 11.052689447615615
266 32 8 -2.2310292988046005 3.736681002901602 11.287410508240464
267 32 8 -2.382471255764098 2.642165746807898 10.869543002681715
268 32 8 -2.4746379907753124 0.534365455862533 11.541412799690121
1034 65 4 -6.1982653728731565 -1.2387455108203913 10.948019625150945
270 47 8 -3.4178888661740086 -1.1366630473282542 13.231755098423516
271 47 8 -3.4907447187102227 -1.5130551807300878 14.886302328778328
272 47 8 -3.9145358961359675 -2.045276261180872 13.950694612955374
273 47 8 -2.820843275512349 -3.43747598404987 14.048068988836182
274 47 8 -2.9257538476512366 -3.9891866850767252 12.605763468954141
275 47 8 -3.9402993940722992 -4.710815031424403 12.106574180324039
276 47 8 -3.8495918142819656 -4.783981717172942 10.706848746679864
1047 65 5 -4.827523163026789 -2.269425360173675 9.191049090130546
1012 65 4 -1.4419892289871155 -2.03197155935323 5.29985079359032
1026 65 4 -6.146520461333944 -3.199110980817449 9.403869033175436
280 51 8 -7.294772188521331 -3.0497300735177366 8.116398013993269
281 51 8 -5.990559492661975 -2.3884035433056097 8.381133562120688
282 51 7 -4.981023812470128 -2.7617310467827028 6.975770120407382
283 51 7 -3.8403132865184855 -2.7379168089510184 6.817716708388941
284 51 7 -4.709934963505629 -2.6738111317656457 5.82904215685272
285 51 7 -5.8703018263457905 -2.855080787142505 5.331845496205626
286 51 7 -7.212460534355332 -3.25190459159127 5.89010183223565
287 51 7 -6.312242110710521 -3.9195560784098933 6.381103958909253
288 51 7 -6.629352015993871 -5.530189249179834 5.976447828939146
289 51 7 -8.059993699992193 -4.881761687320655 5.959458383106679
290 51 7 -9.060237818712414 -6.175994754214467 6.796404102073443
291 51 7 -9.159652328086677 -6.852699111109446 5.140043971409334
292 51 7 -9.16516206874708 -4.993653106950331 5.106632242714571
293 51 7 -10.511690365178854 -3.207725061786017 4.84031775182116
294 51 7 -9.563821006224043 -1.5362022302423677 4.8397856993512445
295 7 8 3.050166870129959 15.158994827775597 8.327525797770658
296 7 8 2.728499955462278 13.227116925099077 7.727019995966106
297 7 8 3.5860687609160276 13.038765909152284 8.835518883215766
298 7 8 2.0788295318046615 13.24333713263721 8.637725590469463
299 7 8 1.5995094243848604 12.078679551198062 7.8948181800603745
300 7 8 0.6636081472343215 13.592929626984912 7.718098609487413
301 7 8 1.6457579952854342 15.08672609371275 9.054039891850113
302 7 8 1.4767532328335664 14.53401742088315 10.366837698156438
303 7 8 0.6617445390429427 14.007192971269525 10.010091627132596
304 7 8 1.8173319695242738 13.108365702913485 10.168730430134516
305 7 8 1.4365120763402548 11.235407546785403 9.664248106290383
306 7 8 0.6585168674126253 10.210403336732254 9.43552926795448
307 7 8 1.1525393564765851 10.918500127923881 10.702009437093045
308 7 8 2.0934440697506513 9.75951972721949 10.81898344051486
309 7 8 2.8135438836291393 9.939962242987454 9.436057460437794
310 7 8 3.532450778869688 10.822870316150304 10.430251259399292
311 7 8 4.072056903918897 11.671351381583925 11.34013857510691
1011 65 5 4.847640574257632 8.560064831517241 8.313409447987238
313 45 8 1.932039668280883 9.395776841091752 8.955505298756663
314 45 8 2.4364309735784686 8.161187143067563 9.373280004467281
315 45 8 4.110949789467471 7.259527436361638 9.345848342593518
316 45 8 3.535668288612826 6.184036224308382 8.946285294139885
317 45 8 3.218277417726533 4.960374515553238 9.124036957868435
318 45 8 2.149385536525573 3.5834724582201756 9.061310852814323
319 45 8 2.936323835861159 2.479922111186538 8.816515453249801
320 45 8 2.803187100557738 2.6993747047553667 6.866442133371295
321 45 8 2.3896148317380277 2.938165908202114 4.937067179317611
322 45 8 2.409266716180686 0.9901792571320147 5.863557489772615
323 45 8 1.229307168913634 2.103972637310495 5.731095799090309
324 45 8 0.801386395501 3.7163704918006872 6.4536324391382625
325 45 8 -0.19337154107859394 3.585315489799872 5.960784098019079
326 45 8 -0.6701154369759937 4.6654093272484065 6.660605259581207
327 45 8 -1.075498907754848 4.073296275802481 7.994479888103526
328 45 8 -2.16887582012242 3.6577811988949613 8.892369897227951
329 45 8 -2.0386547221537583 3.207998487470014 7.665579880562083
330 45 8 -1.11793697694985 2.868441783154933 8.865869882971605
331 45 7 -0.2394963143872539 3.328204800500471 8.648452884815116
332 45 7 -0.04354034249514816 2.2565840663348635 9.55205485982832
333 45 7 -1.1041907523204233 1.5362973891246448 10.035351563796583
334 45 7 -0.2386238431531238 1.8192520298926682 11.715302352783244
335 45 7 0.5622506801064523 3.1862715954697816 11.984585457597692
336 45 7 1.4126837920286373 4.353874724795932 11.886853610832802
337 45 7 1.3254116813770054 3.1767731138897677 12.871333437719224
338 45 7 2.1463420446667443 3.61748724457856 14.531983916208384
339 45 7 0.3518519593873282 4.520697104864263 14.563645864801922
340 45 7 0.17262076081259606 5.713024038716922 15.043781890300949
341 45 7 0.3807369721493755 6.483234844288916 16.087546883337005
342 45 7 1.6746504159709603 6.133460366007814 17.23765523975641
343 45 7 1.0586892459189667 4.938843617184675 17.153870501192333
344 8 8 7.23673047960542 18.184015246584337 -9.355055940728843
345 8 8 6.454373310407183 17.560508957894882 -8.669419022429745
346 8 8 6.893145075001553 16.670969263649553 -8.641138626266029
347 8 8 5.993321587739128 16.28583796338726 -8.204317710382929
348 8 8 6.3938657433757085 16.72644711151029 -7.00221396725823
349 8 8 7.823771059142619 15.291946438082343 -7.900326938846446
350 8 8 8.583391882738256 15.631785512604687 -8.450183890279142
351 8 8 7.589926911948896 15.872482103639655 -9.836611953276728
352 8 8 6.878035687541368 16.974507414882144 -10.398870042284473
353 8 8 6.7113042931213105 16.004171692629498 -10.916148464484476
354 8 8 7.449595264054046 15.025529299523017 -11.578315102478156
355 8 8 9.222363253074477 14.901366886356312 -11.23718240933106
356 8 8 9.486039933709911 12.947281819907467 -12.23475359271238
357 8 8 9.609195454446535 11.487406235091028 -12.415709893246968
358 8 8 8.94308310074587 10.617441259435674 -12.05617102347976
359 8 8 8.54649101280919 9.983315133469574 -11.193381836980059
1057 65 10 8.908383273676632 8.856417887516482 -12.351052843516989
1048 65 10 10.315381193518101 9.21600281406079 -12.634968040805148
362 8 8 11.393014452399346 7.802727136355554 -12.893073350978684
1051 65 10 11.13429991289664 6.926390423224807 -13.459232594928773
364 8 8 10.621223891015624 6.081946611487443 -12.886048734851194
1063 65 10 9.764982317956852 5.447059517865274 -11.431222628693977
366 8 8 9.536117569691694 4.587319152379028 -12.61491844232943
367 8 8 10.022535660431304 3.447945173117339 -12.582010911681872
368 8 8 9.503807742665815 1.5551588891451371 -13.336669716599303
369 8 8 8.620599945410225 2.443510432905959 -13.56223556831125
370 8 8 8.037204275070495 3.5533243985980447 -14.734617578507224
1038 65 5 9.826889250347298 5.881933187019217 -15.869222745396813
1035 65 5 13.801222186714279 5.893671118709886 -17.446627190450013
373 42 8 12.342909979607667 5.293735614302763 -16.231057771631686
374 42 8 13.385007169322419 4.755750753466549 -16.77994009877091
375 42 8 12.765211762701735 3.6919157008924692 -18.300999513626525
376 42 8 11.522559166221242 4.078251244845517 -18.713916594516615
377 42 8 12.284939166370163 2.633597181023409 -17.272126285115437
378 42 8 11.073777537482238 1.9289811544449058 -17.589084067308722
379 42 8 12.109726561067786 1.0773704233174084 -18.120019917080185
380 42 7 13.109506764036448 0.4117129572832743 -17.349532286043807
381 42 7 11.90297418293213 0.36612187553086023 -17.255831201056218
382 42 7 12.692926922055634 0.033572233005110454 -19.194551116162458
383 42 7 13.396619353617533 -0.9444527287294326 -19.42288343637956
384 42 7 13.502676479210303 -2.6680710008433897 -20.448570168411155
385 42 7 14.257398681429295 -1.3674697851247901 -20.78901239203184
386 42 7 14.622800728410144 -0.653187068413603 -21.871620802255944
387 42 7 14.84140143835312 -1.0115662809057588 -23.15894759902096
388 42 7 16.072502088958522 -1.7266480801987774 -23.282709189343894
389 42 7 17.999802594136767 -2.1662557576681527 -23.49210224146963
390 42 7 17.348165665003695 -0.7468171057118322 -23.04038199202972
391 42 7 17.720892783071573 0.28048844573337 -22.376907490430227
392 42 7 17.949563128344654 0.4468910834102503 -20.967419097031513
393 9 8 -4.663577637765513 -3.092190308104317 -14.978951707034032
394 9 8 -4.436858778534601 -4.282422420870963 -15.886259638346317
395 9 8 -5.947845201001287 -4.516119691417056 -15.461584012527746
396 9 8 -6.600644872678413 -4.044814949848739 -14.465885274625412
397 9 8 -7.793718801972419 -3.7553163682021804 -13.316397179893983
398 9 8 -8.480982858197349 -2.440415269508881 -13.639033375192323
399 9 8 -8.625683242556281 -1.379188599101228 -12.274555805176913
400 9 8 -7.792940946455884 -2.207585635050287 -12.25907798354604
401 9 8 -7.556637647950522 -0.9831696361363952 -12.704610182450727
402 9 8 -6.333118419935174 -1.0324722528687822 -11.853913413271405
403 9 8 -4.793766454914588 -1.2171270315957678 -12.54111635867185
404 9 8 -4.155830175818031 0.03445697697159237 -12.96745734574755
405 9 8 -5.834980829366608 0.2972309170736659 -12.515823474920808
406 9 8 -6.995723131333666 0.05038328594978673 -11.00049534704436
407 9 8 -8.182913696405251 0.4599067104847513 -9.483256156286073
408 9 8 -7.34891491470293 0.1883496105412762 -7.602351034986835
1010 65 4 -4.504778913837692 -0.37917067519964 -9.242679080536737
1022 65 4 -8.205857983181756 0.8264754325644104 -6.987785583677073
1016 65 4 -5.762481293227897 3.823231416577023 -6.76323468121502
1029 65 4 -3.5975730082410595 -1.6208419621025854 -5.163644998791373
413 53 8 -4.047942977097995 -2.52959550882432 -7.7676357636678475
414 53 8 -5.192034946325067 -1.7902298020958025 -7.600436716215926
415 53 8 -4.781584206607135 -1.308715449782709 -6.5185638606420016
416 53 8 -6.42148690309622 -0.6594361585433375 -6.8361341459897105
1021 65 5 -8.637178171533531 2.7782114441003305 -7.1396083580561625
418 33 8 -8.619232941960734 -2.161154157676468 -5.486134662496278
419 33 8 -8.705022143678155 -1.285976460947409 -4.713469657802814
420 33 8 -9.931189066919176 -2.008692535200916 -3.7250822031410378
421 33 8 -10.425027597178289 -2.56964546400865 -4.326690580509622
422 33 8 -10.28248675416414 -2.986094503122767 -5.841425882925407
423 33 8 -10.315270639929864 -1.9844365030740818 -6.415237169261122
424 33 8 -11.025052959263386 -2.116361853812161 -7.285782485318467
425 33 8 -10.605260330636046 -3.7422481586282603 -6.582363790462175
426 33 8 -10.575195780663245 -4.100428783425181 -7.612506010846453
427 33 8 -11.00384077203888 -4.971821797058443 -7.937049521332439
428 33 8 -12.092007851341501 -4.470452359852296 -8.084566903076198
429 33 7 -12.9480085283794 -4.999787844704284 -8.620462324858579
430 33 7 -13.814682369373182 -4.079892337974777 -7.8383810013428885
431 33 7 -14.27949518767675 -5.4758168831018805 -7.528000924726209
432 33 7 -12.282771458047813 -6.475988485816121 -6.914183752667393
433 33 7 -12.96975581557231 -6.849901087500315 -5.8806020844739715
434 33 7 -13.469926953172367 -7.9221215603022745 -6.912178823963085
435 33 7 -13.394142830688372 -7.474978429280202 -8.58798717861905
436 33 7 -15.024506339374598 -7.408737242245546 -9.922617455588304
437 33 7 -15.263683201513604 -8.39449720550772 -8.883879030375988
438 33 7 -15.12405568244212 -8.86335421863948 -7.090685248214908
439 33 7 -15.815035088120304 -7.195352077389158 -6.842321129462328
440 33 7 -14.974746575556932 -6.6434014008626265 -5.348360536824025
441 33 7 -16.132531864993044 -7.538202955938082 -4.169266668893735
442 10 8 -0.3385203328505049 15.04920996058766 0.007150723030824442
443 10 8 -1.3225223169233253 15.598706126591194 0.1725468319357535
444 10 8 -2.609161171012814 15.621773191576416 0.07307945782065367
445 10 8 -2.8443691808152596 16.119010651161265 1.0605233739955944
446 10 8 -2.8173889972296142 15.231599046479765 -0.8444397824225174
447 10 8 -3.591657322735737 13.651068796551698 -0.5687572678595965
448 10 8 -4.467382556817684 14.568891418037838 0.00346201948800065
449 10 8 -4.304429074520994 13.65782688473556 -1.2243801377684995
450 10 8 -2.6839206207415183 12.93172272636203 -2.2238352161542547
451 10 8 -1.6409107965491183 13.645642519827078 -1.4536672684538863
452 10 8 -0.984580270937661 12.056345494766399 -1.998507077508555
453 10 8 -0.9612777212571368 10.950735705189874 -1.2833491888620792
454 10 8 -1.6394232319373172 10.731556094623723 -0.372446711648563