# Generated from readdy-to-lammps

1005 atoms
726 bonds

10 atom types
1 bond types

-30.0 30.0 xlo xhi
-30.0 30.0 ylo yhi
-30.0 30.0 zlo zhi

Masses

1 1.0
2 1.0
3 1.0
4 1.0
5 1.0
6 1.0
7 1.0
8 1.0
9 1.0
10 1.0

Atoms

1 1 8 -15.81256591555682 -10.077003779750735 -11.959729004211514
2 1 8 -15.096935689873014 -8.920122277894256 -12.486830470723772
3 1 8 -14.726064348544869 -9.538238030022262 -13.356857535069395
4 1 8 -13.408653706901218 -9.499458258782445 -14.146420424241239
5 1 8 -13.22693579583167 -9.644824859324451 -15.251531588991487
6 1 8 -12.953555352732833 -7.808753383626654 -14.071783608323752
7 1 8 -12.161173965812075 -6.967501723184652 -13.944361200546012
8 1 8 -11.726660493002967 -5.718136781811498 -13.975044981503999
9 1 8 -11.868396886096164 -6.220327141957421 -12.559936517500846
10 1 8 -11.466016127795907 -4.601910313218772 -11.941688758349857
11 1 8 -11.388704666421011 -3.455331889478771 -10.776118197336327
12 1 8 -9.786496533601104 -4.608723975865103 -11.240632277352416
13 1 8 -8.785362286999158 -5.834253481310411 -12.339241025756563
14 1 8 -8.006573703182664 -5.414893429752498 -11.30480345720317
15 1 8 -7.146310735471084 -4.282936977626795 -11.723899411175916
16 1 8 -6.689688547726328 -5.0027529392199686 -13.55606735493981
17 1 8 -7.189530628021943 -5.406242350386081 -12.438304935511951
18 1 8 -6.820306753021843 -6.632597268324641 -11.772669807552536
19 1 8 -7.619842937444866 -7.346276539403851 -10.8614708431571
20 1 8 -8.477397215192509 -7.845414084915684 -9.63070536602713
21 1 8 -9.944162484170812 -9.470414734160215 -9.659253505032211
22 1 8 -8.802414039408655 -8.859127577590689 -8.927836301447453
23 1 8 -7.456259167542956 -8.294224647042533 -8.563398513042747
24 1 8 -7.884454516860837 -9.283301256229677 -7.584430868754985
25 1 8 -7.147598635232391 -8.296215055615779 -7.548216049897353
26 1 8 -7.042564424627562 -6.919972146381138 -7.08065451026639
27 1 8 -6.297146884150248 -7.860572790387468 -6.795291058504872
28 1 8 -5.0217189315132105 -6.830949014000339 -6.691011376057671
29 1 8 -4.674872381843075 -8.05705866950384 -8.09856439287954
30 1 8 -4.317532810971452 -7.504393725871846 -10.171880849112407
31 1 8 -4.174743501572863 -5.924774757405491 -9.890837419637807
32 1 8 -3.4727749707135818 -6.793614974836473 -10.40312910396292
33 1 8 -2.77176094575577 -5.952388274044074 -9.711417130230615
34 1 8 -1.9259361212146364 -6.171420459779013 -8.908049779550824
35 1 8 -0.12150337796366267 -5.955240989411045 -8.691547493390287
36 1 8 -0.11814503712702122 -6.438465406579873 -9.645927286411842
37 1 7 0.5249603391069155 -7.108297563486574 -10.395233279892121
38 1 7 -0.8743386177375291 -6.954597542226694 -11.677080673036375
39 1 7 -0.8265594925884929 -7.143005085000516 -10.423775359422853
40 1 7 -2.694873750800115 -7.17100865492098 -11.433888961757953
41 1 7 -2.336639921932878 -6.974882711829379 -10.224507707776462
42 1 7 -3.3254835700704226 -6.33963621602674 -11.341133340808591
43 1 7 -5.166362814613393 -6.615886339047393 -12.400467115345682
44 1 7 -4.522257077059554 -6.354031493977361 -13.358793283665587
45 1 7 -2.762146554709285 -5.470928338184023 -13.50663177603042
46 1 7 -2.4109852424084983 -4.868966227765148 -14.134795773935004
47 1 7 -1.4062577219578902 -4.069875505561081 -14.27008393223621
48 1 7 -0.7852470032958931 -2.92803659752891 -13.451459824983248
49 1 7 -1.7664054002109872 -1.6744348377021958 -14.33354663787202
50 2 8 1.3179684250500872 -1.197061837239201 -3.035411367271916
51 2 8 0.6511827581334763 -1.505454437579889 -2.277671583935822
52 2 8 0.7596781628270401 -1.8281115840429922 -0.6255108982771012
53 2 8 1.0836112902198018 -3.2087798348310326 -0.8160951689223273
54 2 8 1.3719598061709506 -4.523673584511004 -0.1553585063762083
55 2 8 0.44413237441947706 -5.1417560727467615 -0.17003267860863627
56 2 8 1.1835143169752835 -5.757063179577288 0.3333477294274415
57 2 8 0.10261397507839279 -5.636124057531835 1.1546482137469243
58 2 8 0.7459879105367582 -5.102219142079917 2.182706348446551
59 2 8 0.06856814160725697 -5.54967662857458 3.3516720364410575
60 2 8 -0.69430322970375 -4.776112276891086 3.6726193313306355
61 2 8 -1.0749741613047832 -3.6048356626488474 4.978941286219255
62 2 8 -1.258020792646234 -2.4744121921443414 4.773388171931008
1007 28 4 -2.644424488367556 -4.356199636005905 4.577116692302659
64 26 8 -1.7381126546208947 -4.263171936818085 1.1550166656229626
65 26 8 -0.5520990436007098 -5.1410137782431695 2.5862085244746176
66 26 8 -1.9435535186910242 -4.711497684650567 3.0544684805554607
67 26 8 -3.3214070115229055 -4.516259015034927 2.0859031007824975
68 26 8 -3.4818298641552743 -3.390777368539159 2.4975559140646335
69 26 8 -2.8866129465934947 -2.749090025350699 3.7259682046769007
70 26 8 -3.088105760507133 -2.8230902327381777 5.187516504842707
71 26 8 -2.3997954219582587 -1.864133776582033 4.830780682707717
72 26 8 -1.9185909257759963 -0.2257501852586819 4.58465218778787
1009 28 10 -1.9210164540795895 0.43790530928370913 3.3007009196619226
74 26 8 -1.2739240548291415 -0.611077666072819 2.5830711400209245
75 26 8 -2.914864884887921 -0.8643022956587311 2.308762573539095
76 26 8 -2.827324208288196 0.46555976859624554 2.341295978802324
77 26 8 -4.553705004125816 1.5794657481139924 2.518390903998539
78 26 8 -5.745711812079717 1.8557542089899763 2.832840869399432
79 26 8 -5.1723868425251505 0.8852254309741722 3.1026559925892765
1017 28 10 -3.517455256250177 0.7154479905141817 4.28460590723951
81 26 8 -3.038402644983962 1.6665082476952089 3.8370308208543276
82 26 8 -3.472392457467032 2.1937313106535905 2.374808051653133
83 26 8 -2.638217679524189 3.4761259913095186 2.4500179028363664
84 26 8 -1.1269616243410183 2.8710447355354516 1.7842145666901188
85 26 8 -2.0297204210885456 2.19173549326479 3.2510102942115857
86 26 7 -0.8980521050233122 2.075281024143859 2.5610090342093925
87 26 7 -0.9666136650977388 0.6284473446756239 2.62689485091246
88 26 7 -0.3532400444740137 -0.6194041545577843 1.910969077694006
89 26 7 0.02919854618488102 -2.1267406759090375 1.7475782916502098
90 26 7 0.9037448456476538 -0.9806119133462672 1.2165704675154678
91 26 7 0.7286404770677715 -0.018179538869659437 0.43640643502714527
92 26 7 1.3598368951213151 0.9961682659134442 0.47945611170794067
93 26 7 -0.4017191571267861 0.7907856765127773 0.5851880468428713
94 26 7 -1.7017850792402431 -0.24433627206226327 0.3221820183308463
95 26 7 -0.5060089109905722 0.28151837944857167 -0.3754954610086509
96 26 7 -1.2176920434585732 -0.9326098216153963 -1.2302853197784844
97 26 7 -0.3957632889012464 -1.6972318219705824 -0.5393951719913054
98 26 7 -1.478208112694698 -2.2202432730356834 -0.40643925165651024
99 3 8 -0.8674228330185235 -7.308118701605907 -0.08434078534442604
100 3 8 -2.1365147978713206 -8.260417588266241 0.20219579807053367
101 3 8 -1.9616001371369058 -7.980813355482512 2.0103963002036
102 3 8 -1.7580590299765937 -7.305871528171907 0.9225704193802888
103 3 8 -3.021221633935896 -7.640807033010416 1.8203698717054824
104 3 8 -3.1568950531900417 -5.990486545103815 1.9003535245980268
105 3 8 -3.467927806951918 -7.082563594860858 0.17767889613065985
106 3 8 -2.833202760038836 -6.809510937963699 -1.73124003050555
107 3 8 -3.115207350513732 -7.617608047847572 -2.723516797156079
108 3 8 -4.012234554244201 -8.131703860788859 -1.9965534720415952
109 3 8 -3.91576732073753 -9.912182937732918 -1.6538536836496658
110 3 8 -4.8359457731165865 -8.717538694467336 -1.946978885272781
111 3 8 -5.335332264420214 -9.702070441966946 -0.6886534402271959
112 3 8 -5.279274440406473 -11.187463770629275 -0.021278434163874788
113 3 8 -5.947871493535963 -11.259150025304258 1.239284126185255
114 3 8 -4.321243183369523 -12.220951010848305 0.1732830028573072
115 3 8 -4.496275764151437 -11.328511318476501 1.1074470389346696
116 3 8 -3.8937343023541606 -10.518724347584723 0.7275095403062704
117 3 8 -3.4054115551063875 -9.18038801327509 2.061903360065153
118 3 8 -5.084352100756365 -8.829746712736336 0.26329027193355264
119 3 8 -5.199650019955784 -8.669931061801227 1.2937615959963915
120 3 8 -4.653391415824504 -8.39557343548009 2.625262809701488
121 3 8 -4.39063481122875 -6.950924355482212 2.727738422392732
122 3 8 -4.52414876730288 -6.6905165686803585 4.552276288013926
123 3 8 -4.002918490392104 -8.298520294263747 5.2447631978239215
124 3 8 -2.5845488298349473 -8.54394268422931 5.526664902335455
125 3 8 -2.1113510085479814 -7.798798961743182 4.427217970929447
126 3 8 -2.3164075517575213 -9.051562702725345 3.2257114402215916
127 3 8 -2.820147944297137 -10.609480937858295 3.0527926793456883
128 3 8 -3.0048128437504267 -10.496070827842836 4.445152061772988
129 3 8 -3.6825831348977847 -11.5462538169874 3.022892049099373
130 3 8 -4.871805197949108 -12.361819239056734 2.893769091376727
131 3 8 -6.021234456855842 -12.756458443782394 3.5393152443048765
132 3 8 -6.9026421884229405 -13.68474936454073 2.9384514416019085
133 3 8 -7.145150814416111 -15.053908416901294 3.1532437036080663
134 3 8 -6.125526675688192 -14.500453687097343 1.2650016141550564
135 3 7 -4.6104001332789135 -13.98361777786466 1.5782037436492433
136 3 7 -5.0375906993501305 -15.77362418759986 2.1085063593041276
137 3 7 -5.632255346998482 -16.356878814403508 0.9495223194629747
138 3 7 -6.082584497947411 -17.470300714696876 0.2743953679807331
139 3 7 -4.581155567342116 -17.20947203582297 -1.1395527164259174
140 3 7 -3.9276083851709216 -16.110429306219046 -0.7266424514444804
141 3 7 -3.2411756290123033 -16.10412042449809 0.24798858815731853
142 3 7 -2.5428919208297813 -14.946883855830421 0.9599855582727926
143 3 7 -3.519909827277663 -15.701064405341835 2.403917227642532
144 3 7 -3.1891873263930735 -14.059949271147145 2.7024237939629323
145 3 7 -4.2181483807786675 -14.192388641692837 3.2997053233435216
146 3 7 -3.7820372997623792 -12.71161853530054 3.5239420910424935
147 3 7 -3.996352149800946 -11.685513559494389 4.585105114279464
148 4 8 -0.06937227675796813 11.324653886036314 15.678676907889646
149 4 8 -0.8250580258741794 11.71081486470818 16.918632655022527
150 4 8 -0.3642346425343808 11.291479260286918 18.459869791479065
151 4 8 -1.367670647786725 10.547063930923855 18.58793406749447
152 4 8 -0.7712114773845938 9.451740266144137 17.765025580071505
153 4 8 -2.469632578606015 10.341944799107013 16.260255462316923
154 4 8 -2.0236899436255436 11.009478627645255 17.052502469463064
155 4 8 -2.12229053625241 9.518941424992583 18.05994168482092
156 4 8 -2.871381545561695 8.941337656998101 17.05734705237475
157 4 8 -3.592795557739715 7.675369263207602 17.342716592395142
158 4 8 -4.2136731769999525 6.855156729192318 16.46713270183923
159 4 8 -2.916688777286569 6.776978994986983 16.771469048958448
160 4 8 -2.805707418623619 6.94424962141054 19.121062958386876
161 4 8 -2.1554866812094087 6.094927350024621 19.499016338576293
162 4 8 -2.379279967281054 6.543211985101572 20.822901259985596
163 4 8 -3.3846027145102893 6.546981177955591 21.31317724691335
164 4 8 -4.803419636727076 6.053958404221588 22.913973539338226
165 4 8 -4.880786505626982 6.380850730779748 21.515020470952678
166 4 8 -5.786876572358693 7.874568284170836 21.609537249253925
167 4 8 -4.801838205039936 8.562430597707117 22.74035076169028
168 4 8 -6.071325374177688 7.231521454364789 22.69562257123609
169 4 8 -4.891938874077339 7.306670673265584 23.13812750471004
170 4 8 -5.205145851732749 6.689839102857099 24.544766871648925
171 4 8 -6.088081065290515 4.668392843599172 25.533528262513386
172 4 8 -5.214723766831512 4.41929603495878 25.000398896591268
173 4 8 -4.217784886703992 3.994888457825199 24.88455111541461
174 4 8 -4.199498310270881 2.2740342107182605 24.918467019197024
175 4 8 -3.4835497339347956 1.189802080401975 25.19333551420914
176 4 8 -4.46814009170347 -0.42905574453193923 24.185619075675962
177 4 8 -4.241200631157092 -0.44593417671042557 25.410049195588787
178 4 8 -3.132499252185595 -0.3373892074897739 26.628598097480033
179 4 8 -3.830401739142037 0.5410024528189945 26.88963408312234
180 4 8 -5.0038008319395155 -0.30624625936177824 28.006237136193086
181 4 8 -4.481338247946531 -0.7454980040166013 27.230568133402254
182 4 8 -3.085954111058852 -0.03985889360731032 28.06506175899837
183 4 8 -0.9379430725528632 -0.7839028157343995 27.564545012151704
184 4 7 -0.14959735053837084 -0.8687776204813915 26.97248978920232
185 4 7 1.4057052804984538 -1.2178963823300326 27.304781222087662
186 4 7 1.0570921181787685 -2.2761878229689905 26.540414683875934
187 4 7 -0.01466796400454241 -1.4015088759843282 25.965636461626055
188 4 7 -1.1657378482163578 -1.861903266089286 26.231607754567836
189 4 7 -1.6782384945141848 -3.35723575227581 25.103325023874785
190 4 7 -2.05988557087769 -2.372929471191426 23.456160466684686
191 4 7 -1.3962110946436896 -3.130990493112545 22.90338773289709
192 4 7 -1.9040380439271785 -4.028144813367283 22.29555903189974
193 4 7 -1.3787292984514918 -5.152601866593366 21.75582277845651
194 4 7 -1.8070058282444301 -5.093252740221948 22.942167019315214
195 4 7 -2.2950707012306424 -5.985694565860487 22.645708103205997
196 4 7 -1.452199703969088 -7.039153406797468 23.2129173603931
197 5 8 0.2618170880862122 -5.056081101431563 13.986700276868703
198 5 8 -0.9349708014682805 -5.545603793821613 13.306438997891453
199 5 8 -1.2334953135728572 -4.771877648719333 13.917457352297522
200 5 8 0.43770016828620534 -3.535089382676064 14.561425958115315
201 5 8 2.026902514556601 -3.7750913013775116 14.431947582277736
202 5 8 1.9471979820543985 -5.371226732126109 15.006312377226896
203 5 8 2.7786124335769204 -3.940687598296835 15.22495482867484
204 5 8 3.5597622353775913 -4.417479185539716 16.778573432714044
205 5 8 2.774053235876222 -2.750786513452723 17.11485656930415
206 5 8 2.7913984669869474 -0.8046629861192489 16.827274726756098
207 5 8 4.251069847198902 -1.5286507553706796 16.67281719374103
208 5 8 5.473776520668691 -1.8743302294362176 15.98543157609057
209 5 8 5.245179651367035 -2.7937741091505726 15.63385743012204
210 5 8 6.231160652894106 -3.763653699437467 15.119656762966054
211 5 8 6.395852939330979 -2.6434643774540754 15.217249051612704
212 5 8 7.436156591918043 -3.0577011138290375 14.723415615334408
213 5 8 6.4170651931877964 -1.1617229334536792 13.908473037579334
214 5 8 6.98491992236535 -0.398282438912346 13.272966619828255
215 5 8 6.382117915825329 0.333456012664378 11.723189895485474
1019 28 10 7.318836106036857 1.0633279787072714 11.635497034996828
217 5 8 6.488688370960028 1.4983045898385554 12.179256198411345
218 5 8 7.16337906695865 0.9694631589517341 10.565201510059051
219 5 8 8.52423276666983 1.4974120036265448 9.655656098411333
220 5 8 7.501400890396907 1.2117680024160977 7.646735289200034
221 5 8 8.83602987505798 -0.13948173789861332 7.9278906316958695
222 5 8 7.59337193364331 -0.9295928054925882 8.813060734125958
223 5 8 6.9033394485861885 0.12762407053450506 8.565703060478755
224 5 8 6.686344268736643 -0.33024664287937094 7.304857211000734
225 5 8 7.802926725687977 0.4585043669033427 6.680475962712319
226 5 8 8.507544679431943 0.7976761710616388 5.090306128995498
227 5 8 7.492375382560161 1.7610382324916634 4.219793492470634
228 5 8 8.84375546714728 2.633581009912767 3.444790106727896
229 5 8 8.510098955205278 1.3902199399017516 4.138702036381707
230 5 8 9.404728397048473 1.698498318751289 4.8816718841502285
231 5 8 9.433107839337817 -0.8868844873260636 3.7860314937597788
232 5 8 7.394968546942304 -0.7143031067603774 2.3989345136029727
233 5 7 9.604345995216892 -0.945338298525897 2.424481205366885
234 5 7 9.83200558099462 -2.3699067822074267 2.170773487264207
235 5 7 8.324988269724471 -3.445826327304995 1.5370481979964974
236 5 7 8.288382176000162 -4.852262165663857 0.9522330524828115
237 5 7 9.138526555456151 -4.460557861509977 1.4136191572207881
238 5 7 7.78579651234153 -4.241993467469384 2.330765014298081
239 5 7 6.174118958890732 -4.392728400350295 1.2955863076565979
240 5 7 5.645902972990614 -3.3212795058812192 2.2912815480642164
241 5 7 6.032255305951407 -2.241823352232144 1.9886412030524172
242 5 7 5.815953760559903 -3.3867829629764477 3.6273006517112645
243 5 7 6.833834385888517 -3.190427789608826 4.53502932933476
244 5 7 7.353372521324446 -2.3447832319144943 3.4663419374916282
245 5 7 5.872201762324754 -2.2350338835590957 3.6928578626169966
246 6 8 -0.7244317618503611 2.040681994978517 4.810748818141508
247 6 8 -1.6616293308931165 3.5339696573024497 5.032746432826863
248 6 8 -3.0548935302647005 2.887945794557336 4.954651402455297
249 6 8 -3.0760190371974616 3.440250722407275 3.552266070925701
250 6 8 -2.9161332275324345 5.148873687067557 3.084025171506772
251 6 8 -1.6015349775500376 4.615926996938847 3.991737716744793
252 6 8 -0.8733927593834393 3.549343557412521 3.213151687198967
253 6 8 0.3090255742007886 4.544702960658352 4.824836165887657
254 6 8 -0.7892560371623865 4.163920633108298 6.293066087976622
255 6 8 -1.7737621566300545 2.8928104067912677 6.907506839279291
256 6 8 -3.233859430240213 3.9605335399057777 6.6868399435137995
257 6 8 -2.994425596938889 5.9531213879511355 6.8746841021450145
258 6 8 -2.6643213861435244 6.233207254225389 7.861603796168229
259 6 8 -3.8353201069101557 5.737047449386948 7.403278428969434
260 6 8 -5.430762751398366 5.378002417733992 8.777358357372847
261 6 8 -3.8673709214674292 5.302463920513964 8.421321915699913
262 6 8 -3.522727391975422 4.763653970547723 9.94853754788238
263 6 8 -2.2091225466529756 3.8805143399884154 10.327588621964859
264 6 8 -2.406196596146221 3.6903611339204856 9.376178502285818
265 6 8 -2.4112886852881323 1.5222667511701855 9.383089521680581
266 6 8 -1.8160004272061916 1.7210940870362015 10.465991086582754
267 6 8 -2.72060555624322 0.8205938261561646 10.742955448006676
268 6 8 -3.3574165868776604 0.907148653563177 11.743518629109674
269 6 8 -3.0021035484992824 -0.2493422795350175 10.736190370994397
270 6 8 -3.2777953421887904 -0.4897686212451953 12.172930943276564
271 6 8 -3.3164052340474224 -1.1265965848856545 13.35661873454669
272 6 8 -3.937066674846554 -3.0223003473972585 12.032655248576436
273 6 8 -4.183945776680081 -3.27917692741949 13.071466187194043
274 6 8 -4.133191042775887 -4.00166180943948 11.715671203577463
275 6 8 -3.3579892210929683 -3.7900033723645796 9.865101328151036
276 6 8 -4.552368108704197 -2.8499748354004937 9.648884351411
277 6 8 -3.4828986217171214 -3.0997371976184946 8.298546192278792
1012 28 10 -3.986209137989295 -2.4443734614300734 7.6186683762704055
279 6 8 -4.9906397266193885 -1.2289977504714276 7.33138170092278
280 6 8 -5.118270858527938 -2.647728401799432 6.9979134255554785
281 6 8 -5.293607935818167 -2.9329979112608076 8.184245543607453
282 6 7 -5.345528244868066 -4.035663503424094 6.808344154686844
283 6 7 -4.275692923964724 -4.271181849569291 7.576819011432274
284 6 7 -5.292473319554194 -3.2504295935229828 5.84547716866831
285 6 7 -6.6758473677222225 -3.2822389270204693 5.990880409638
286 6 7 -7.13217178205559 -4.381631386277789 6.741715312234429
287 6 7 -6.516669165625902 -5.477297689131159 6.488060291414638
288 6 7 -6.08832623439919 -4.301707727451606 5.03053434336476
289 6 7 -7.288696643558014 -5.709033909510297 5.479552569290328
290 6 7 -9.05068798273459 -6.420736088344514 6.135780268368639
291 6 7 -8.808357667896509 -5.009333513066843 4.51388366042641
292 6 7 -9.219917417002339 -4.890183903859722 5.802477331547588
293 6 7 -7.9455456020811255 -4.326048898527875 5.187668616309622
294 6 7 -8.336621264116932 -3.665033572102919 3.716486563535099
295 7 8 3.279081512166007 13.517357815207504 6.278000231241995
296 7 8 4.108552119144242 13.370842473488265 7.7970450622633445
297 7 8 3.432723255895711 13.585315287343999 9.001224770026841
298 7 8 2.5669653549098186 13.61936230139371 8.101231285272688
299 7 8 1.0431447232980526 11.750551031831172 7.312715353598056
300 7 8 0.883667704204386 12.846440162374044 7.240107949579046
301 7 8 0.4261976151394883 13.739701311888673 8.41199167879455
302 7 8 1.5177053263895883 14.509173422840615 9.731571765965816
303 7 8 1.1808868120322138 14.517841862814949 11.020988917610365
304 7 8 -0.21823125404501043 14.674492172445982 11.310638573305306
305 7 8 1.4859778880798515 13.47985508449382 11.913811635243318
306 7 8 0.8806196813980208 11.76420254308024 11.683294806831439
307 7 8 1.5419030017980175 10.862778917188905 11.497040338141925
308 7 8 3.0607828812523583 10.207477056749845 11.485811439724854
309 7 8 3.718451012815194 10.331812366792322 10.594772486472122
310 7 8 3.728655099203266 9.960428871649029 9.220779783408034
311 7 8 5.0797451547241765 10.069107789538347 7.904596366135473
1011 28 10 4.5948490948646095 9.068467021812054 8.105621699718506
313 7 8 4.088121516014376 8.073509922909732 9.440130524888092
314 7 8 3.875504546784516 7.770130639791169 8.132726192620591
315 7 8 3.340691353354845 7.410698321806118 9.079836868360335
316 7 8 3.395481463833253 6.325422581198726 9.868278272969965
317 7 8 3.105659202727619 5.962335015553462 8.834652505063842
318 7 8 2.066594512454804 4.419675028775176 7.491089467444747
319 7 8 1.354651396404834 3.5818170005129026 6.47855720271884
320 7 8 2.461893786812882 2.986779651077589 5.522691229649635
321 7 8 2.5559954636792357 1.1352686241246728 5.361978415474921
322 7 8 1.1407045113761463 1.2813014006983852 6.503898589952218
323 7 8 0.09982584702915491 2.1430795018632396 5.853484105614332
324 7 8 1.531356058344374 2.6135700673960485 5.726424219571443
325 7 8 0.22434851614156154 3.0867894200076256 7.902289291348805
326 7 8 0.7691632737538494 4.597891699532376 9.045374735503161
327 7 8 0.74577607542629 5.376208217977489 9.882510352099004
328 7 8 -0.3872520639780862 3.7902125582925366 9.538216666794037
329 7 8 -0.2536911797955289 2.5182649122702543 9.486848092069998
330 7 8 0.7834951028864692 2.191354582074914 9.888343643843596
331 7 7 -0.31760967822868036 2.3290551475312173 10.498538800338755
332 7 7 0.2248917874249971 1.2452595643662316 9.7940103921247
333 7 7 -1.1149373011097004 1.0558367257790906 10.797653130455195
334 7 7 -0.2095462484781952 0.9963563338562035 11.667208447628287
335 7 7 0.20820833474792083 2.0667255621392813 13.082428050405166
336 7 7 1.7415977592430583 1.8941872262525774 13.560720592611412
337 7 7 1.0309382512478993 2.9958389678409323 13.812714725832155
338 7 7 1.3301547040722068 4.842422784915314 12.296205061219114
339 7 7 0.7766323864981859 5.185264415777557 13.499262541974566
340 7 7 0.9980862476570207 4.477346621969936 14.923710335755398
341 7 7 1.5764275290929055 4.736269171878458 16.50603892438163
342 7 7 2.140503913532145 5.977429944113359 16.78795425867219
343 7 7 2.538295884497804 4.563807497683979 17.00679378873714
344 8 8 6.407990043512685 18.908361455331644 -9.816298822257368
345 8 8 5.68188814412053 18.214789779826255 -8.965402889553527
346 8 8 6.267706671654106 17.127963690451285 -8.17396303689324
347 8 8 4.943321406675445 16.6984921555569 -8.402499996483575
348 8 8 7.1025545440875835 17.525893090615252 -8.818218770197163
349 8 8 8.107205392768444 17.281940254154584 -9.381439034767537
350 8 8 8.071063652788453 16.326734160311112 -8.516472396210526
351 8 8 7.059439654186267 15.933201294693854 -9.45372527572186
352 8 8 6.689828618562311 17.284456954317694 -10.393413826308052
353 8 8 6.02524956298151 15.8444919364333 -11.244919601989881
354 8 8 7.232340833203308 14.892964765045551 -11.71561556670876
355 8 8 7.641090487511089 13.808617273856987 -11.515407497674873
356 8 8 7.108325976821515 14.324106482354647 -12.682387524830894
357 8 8 7.896543867678487 13.331416182156449 -12.583921256308248
358 8 8 8.59287358621754 12.642864497785721 -11.718407992403437
359 8 8 9.604880181190435 11.41932886564639 -10.907277464088901
360 8 8 10.916045772222112 11.125679234883965 -10.78458849635425
361 8 8 10.286928887545367 9.272314287927124 -12.222953844151267
362 8 8 11.97345137563817 9.014687702993147 -12.073285745425785
363 8 8 11.069953893787025 8.766637554793514 -12.847776982575537
364 8 8 11.828952477903643 7.2896186148055016 -13.051110723769431
365 8 8 10.4837868107175 6.134543753309391 -12.68008233099008
366 8 8 10.394063606171915 4.939020022904445 -12.548992399018603
367 8 8 8.630429071602421 4.147678515771877 -13.647338497245924
368 8 8 8.27959074754215 3.7831801975933486 -14.731071860840952
369 8 8 7.183012466120297 4.778374061595326 -14.086553553894653
370 8 8 8.151685254675114 4.997648300088558 -15.810123111276308
371 8 8 9.619994667526138 5.284893066334269 -16.69757757569523
372 8 8 10.599462399685832 4.91831282683368 -16.478324794228286
373 8 8 11.622622473610388 4.5847332783840145 -15.954242653155632
374 8 8 12.467775500004825 3.6374389301343215 -16.46469731090697
375 8 8 12.45101920709404 2.0821774426028203 -17.23300647047369
376 8 8 12.515019965935943 2.729448869406583 -18.294931395729037
377 8 8 11.713375021009577 3.6860116571832497 -19.15006590573027
378 8 8 11.878748479269783 2.527741191014848 -19.89391253987911
379 8 8 12.08131100748234 1.8203617770394387 -18.880627920944825
380 8 7 14.3185541772645 1.1973820055317406 -19.44195237223837
381 8 7 13.606315606331387 0.018607498992287357 -18.473197455146288
382 8 7 11.797791153598732 -0.6646796819321913 -18.364514718614874
383 8 7 12.90473337803862 -0.6864712532923908 -19.418108006106905
384 8 7 13.975857037988298 -0.9025249583523772 -19.74742080489408
385 8 7 14.134037183864047 -0.7850894905315916 -21.482679798442984
386 8 7 14.558833352045976 -0.4963760296147159 -22.909494488174964
387 8 7 15.257779080979187 0.47579083614785506 -22.080487514866487
388 8 7 15.427590673978987 -0.24657691386294317 -20.769160880855228
389 8 7 15.77269918352857 -1.3267071124922214 -21.750645879093923
390 8 7 17.495690829768293 -0.48631392789674305 -21.44404379836691
391 8 7 17.307089615788197 0.9192942038147 -20.057024490006686
392 8 7 16.20420900114641 1.1448550032382963 -19.267676426771963
393 9 8 -4.927845269781383 -4.788509152435023 -15.746577827449173
394 9 8 -4.937270872300005 -5.148784520447277 -14.344601236079836
395 9 8 -6.996934056788769 -4.3701019913851695 -14.417366007505045
396 9 8 -5.595464725019779 -3.7612459857603393 -14.370630276363697
397 9 8 -6.408344662333521 -2.416907758349637 -14.567931991767974
398 9 8 -8.300103617547263 -3.215270299530939 -14.352875222113834
399 9 8 -8.483060366776982 -2.2217502290638786 -12.700356507036522
400 9 8 -7.1983301638866655 -1.7998868143078943 -13.714865766508003
401 9 8 -6.590774015656144 -1.319128369489121 -12.84905780462578
402 9 8 -6.782415646981318 -0.36977270131289164 -13.431447518267582
403 9 8 -4.975650658582803 -0.7296497732037096 -12.820423891564051
404 9 8 -5.274343353362291 0.243446549826128 -11.704378697024652
405 9 8 -5.713673541915708 1.7405532045154566 -12.066151638769709
406 9 8 -6.348461327483095 0.9403834268140477 -11.484164831712793
407 9 8 -6.7677333254615295 2.34999455831405 -10.755884618594411
408 9 8 -7.563420580282383 2.501285927757481 -9.282508633956528
1010 28 10 -5.700659695703471 1.607289996395856 -8.95602760830185
1014 28 10 -6.396120375609138 1.3832130450237328 -8.046614364304922
1016 28 10 -4.538517076463493 1.365889780498509 -8.107678416695821
412 9 8 -4.651847788340142 0.13583725338943806 -8.088769451269702
413 9 8 -4.258123631132486 -1.0991972276048165 -8.471830120119442
414 9 8 -5.311660662087458 -1.8769055678577569 -7.461243656365805
415 9 8 -6.349987525598255 -0.6048977833661282 -8.048585987217644
416 9 8 -6.628235891763895 -0.5157526777664824 -6.855318797228542
1021 28 10 -6.415554889186173 0.46766021887076287 -6.266869370502544
418 9 8 -7.492654963862509 0.17117476385437325 -6.955212109318725
419 9 8 -8.62801307947557 -0.3396128186688779 -6.3375587840851235
420 9 8 -9.739231476560256 -1.3803915722574867 -5.1518804886940375
421 9 8 -10.89064473461524 -1.7240175630757126 -5.143309209978403
422 9 8 -12.157693630372124 -1.4270162848387522 -5.545650149494523
423 9 8 -10.797980030183009 -2.799876068827437 -5.149364354913786
424 9 8 -10.956641016736953 -3.8695292533020127 -5.975864052768652
425 9 8 -11.163024038454408 -4.225731945843021 -7.2647879688812225
426 9 8 -11.656006723680255 -5.344426389371952 -7.270144949288461
427 9 8 -11.839199697507377 -6.46920834411528 -8.085921050492297
428 9 8 -12.589765692263388 -5.322996095463415 -7.66980176168266
429 9 7 -12.743093589870952 -6.216965086937099 -8.527128084821275
430 9 7 -13.056783088999103 -4.813003379484118 -8.58853706999138
431 9 7 -13.698669219383627 -4.9158896845022895 -7.202362135068463
432 9 7 -14.333725065652224 -5.094964722188013 -6.06891543723655
433 9 7 -14.392181410239115 -6.8145661300731035 -5.681162092394643
434 9 7 -15.262426935895299 -8.000870537042813 -5.2897800924003935
435 9 7 -14.188017096059951 -7.978643408242788 -5.971804536340186
436 9 7 -14.909143606774391 -7.846783121435465 -7.312076079032463
437 9 7 -14.710603494392918 -7.919471479875714 -8.611717937292452
438 9 7 -16.06529788235491 -7.6505513351448045 -7.9502310898522515
439 9 7 -17.041978426529774 -7.7020215602282045 -7.102614130946997
440 9 7 -16.18419567819263 -7.737385918193149 -6.487808522489634
441 9 7 -16.455990439814997 -6.892663449678726 -5.671308026173767
442 10 8 0.434795403228441 15.935278370211583 -0.8468324739650623
443 10 8 -0.3695817038458121 16.388547206317956 0.09755603188634626
444 10 8 -0.334521530986872 16.29212784917354 -1.4302144610365397
445 10 8 -1.7225977171466047 16.956227092963335 -0.2842539698064351
446 10 8 -2.0977495486371707 15.010686752427283 -0.820681899444741
447 10 8 -2.8144714492689067 14.655118288719706 -1.6843677323520605
448 10 8 -3.417276861216239 15.146247282193679 -0.908485038306674
449 10 8 -2.722679593440855 13.729716866163912 -0.7632535109336133
450 10 8 -2.9628025105244857 11.742341643808764 -1.2241951275597867
451 10 8 -2.183264012076998 12.286699963564596 -2.0691017096206186
452 10 8 -2.515179330206068 11.239523388319672 -3.2606402746458807
453 10 8 -2.7947001034961514 10.328240157205203 -2.2928931057316553
454 10 8 -4.104294032235399 10.458757191666638 -1.4848396815013885
455 10 8 -2.9880523250632343 10.554575556133273 -0.8698215068333875
1015 28 10 -1.9914253938878097 9.579811652671534 -0.4981575357821558
457 10 8 -2.1838006857789245 9.45844796306947 -2.1504597248601187
458 10 8 -1.7102770426777933 10.02645093493298 -2.7479484478980227