# Generated from readdy-to-lammps

1005 atoms
650 bonds

10 atom types
1 bond types

-30.0 30.0 xlo xhi
-30.0 30.0 ylo yhi
-30.0 30.0 zlo zhi

Masses

1 1.0
2 1.0
3 1.0
4 1.0
5 1.0
6 1.0
7 1.0
8 1.0
9 1.0
10 1.0

Atoms

1 1 8 -15.064995021643405 -8.663803110928223 -11.179041002712891
2 1 8 -14.257292620757811 -10.15534214924926 -11.471970397497945
3 1 8 -13.225778895963478 -10.196695285867433 -12.626715451507632
4 1 8 -13.632878154647635 -9.317953189996288 -13.588426171129127
5 1 8 -12.400416451043135 -8.577243457081554 -13.828839297273353
6 1 8 -12.14859014405288 -7.906468202832803 -14.573337350113004
7 1 8 -12.180561029669935 -7.251009600149115 -13.612940616180467
8 1 8 -13.319476908390893 -5.608548378594625 -12.399643348868736
9 1 8 -12.158258948717629 -5.792627892568743 -11.475107605366137
10 1 8 -10.825005012182778 -5.791181949961772 -12.824622008154158
11 1 8 -10.55256431227866 -5.364472437375088 -13.891396983444263
12 1 8 -9.819807250123965 -4.684874341847359 -12.076569668587764
13 1 8 -8.934677713430657 -5.498628797006558 -13.191158431854225
14 1 8 -8.018263483875376 -5.211101423499369 -13.457181991255709
15 1 8 -7.406179387709066 -6.704717588393635 -12.151312156196198
16 1 8 -7.30063277912817 -7.14073950553324 -10.92040324752915
17 1 8 -6.687761160752251 -8.044372001173668 -10.32833518508495
18 1 8 -6.549551463324685 -6.815854595203492 -9.507305718816754
19 1 8 -7.2870919184205745 -8.86857025162042 -9.371600700691287
20 1 8 -8.335857116506737 -8.889268093199528 -9.357249735640323
21 1 8 -7.935526348242828 -7.974193913911714 -8.515991084208203
22 1 8 -8.609399589746484 -8.977382476257343 -7.212078541412522
23 1 8 -7.809870467762817 -8.969519382684727 -6.201736435120585
24 1 8 -7.7782570637854 -10.792696592896062 -6.378445884469608
25 1 8 -7.765609298323377 -9.99392659023356 -7.928934412929144
26 1 8 -6.0489420616411875 -9.74646378562817 -8.333579647002686
27 1 8 -4.489835032671544 -9.37425020446855 -7.508460932302387
28 1 8 -3.53262222067724 -8.072859060485841 -8.087106219624397
29 1 8 -4.572406506873133 -7.042460868913844 -8.384445685683689
30 1 8 -4.058589262935575 -7.771591916166468 -10.040372811076248
31 1 8 -4.925399055361175 -8.92510072498482 -11.074412729862605
32 1 8 -3.0923395851714095 -9.360274426631683 -11.245166868705626
33 1 8 -2.7988844610318764 -7.91109089361018 -10.693103561617145
34 1 8 -1.8732036987496115 -7.301207757126013 -10.26397659854183
35 1 8 -2.267745228262674 -8.567190751333577 -11.537661404867439
36 1 8 -1.2968350498709555 -8.410563618578639 -12.610755727558752
37 1 7 -0.07869505216175986 -7.865716495951135 -12.51102696090807
38 1 7 -0.5625996785067017 -8.631831569789906 -10.972930878669395
39 1 7 -1.6009981955406472 -7.586008113680982 -11.27607181880329
40 1 7 -3.5488362401070206 -7.476535730348402 -12.473291868459635
41 1 7 -3.974801416612588 -8.681271938984858 -11.657537728915328
42 1 7 -4.8113127026847975 -7.819558800359312 -11.99061278621546
43 1 7 -5.074788883882698 -7.200615148430265 -13.483043562828025
44 1 7 -4.44494987917523 -6.179494098999047 -13.498113445958491
45 1 7 -3.8052117270258563 -4.854722855123535 -12.860234403448901
46 1 7 -2.8906039043939846 -4.998922407790705 -12.216096362239089
47 1 7 -2.3683288650589143 -3.428469339967164 -13.088710609757284
48 1 7 -1.6187864079364436 -3.2221133442495953 -12.186908230471984
49 1 7 -0.32804022927214793 -3.740095916256451 -12.21849687682824
1050 57 4 -0.6896110150366677 -2.5638318914288147 0.20174582452966597
51 57 5 0.4597059777614292 -2.7597874027168348 -5.510491501570655
1046 57 5 2.675505397884832 -4.77884370723872 -2.198847985269934
53 57 5 -0.9043147255735504 -3.1639916140147024 -2.3442741536409297
1042 57 5 1.7224388363097882 -4.765817582927057 -0.5351041357174975
55 49 8 4.767960443029581 -7.118483601237031 0.3523901347217469
56 49 8 3.0845669410068086 -6.747344198206784 0.5099365109104337
57 49 8 1.8981083638105136 -6.659997633317372 0.581917453404539
58 49 8 2.286889589810186 -6.851899817208863 2.0942724248641715
59 49 8 0.9241878669731695 -6.527738422209074 1.9955148184496165
60 49 8 1.2964535903476966 -5.8223864296892485 3.440326239005465
61 49 8 0.38568292133478393 -4.897825525371282 3.967580979300163
62 49 8 1.637597897469678 -6.013667735249077 4.747214396864956
1007 57 4 -1.3955308475702672 -7.833586022160368 6.896216034996344
64 25 8 0.6157732377745728 -4.865721808519222 1.695436115515548
65 25 8 -0.8545891917037891 -4.584094069480919 1.7279422043074304
66 25 8 -1.822959774259454 -3.658802841970787 2.061501507699625
67 25 8 -2.5330997033579514 -4.5431291428960945 2.45405364187129
68 25 8 -1.7842366633103883 -5.109440170661178 3.432912010347607
69 25 8 -0.5605850357590453 -4.474950154849199 4.7536037616938485
70 25 8 -0.4035461977469382 -5.646777173414836 5.400720275711468
1036 57 4 0.09269165812364515 -3.903928744077638 3.601377611353993
72 57 5 -0.324006504239592 -1.6286717439060794 2.8039311524097346
1009 57 4 -2.061441565383046 0.2616921340828315 7.682544020397082
74 51 8 -3.4358588253405657 1.932289861159545 1.2174731552129199
75 51 8 -1.864635177925211 0.334544223365906 0.7903144309743575
76 51 8 -2.993165029080448 -0.6383407705178664 0.7493764421792336
77 51 8 -3.3767454164803623 -0.37283806996301705 2.0382323866805723
78 51 8 -3.5949746611677185 -1.6041009622906062 2.0484169053218384
1037 57 4 -4.726862615277139 1.2630194779994295 6.447599681842185
1017 57 5 -5.9206909934939205 0.9318726827068494 2.7873889319688177
81 54 8 -3.8102685589403187 3.240141330460466 4.028281435221482
82 54 8 -3.3612268176055937 3.7398799420453015 2.6880164391388957
83 54 8 -2.002335030443481 2.888318114550539 2.3573775782194883
84 54 8 0.20664194407624964 2.6754929300654258 1.9137118161530744
85 54 8 0.872292872354036 2.4244211431769123 2.825774688382039
86 54 7 0.6788057981696931 1.454419044512544 3.285494929115535
87 54 7 2.2438862849942414 0.6849639882300705 2.6107265691693864
88 54 7 1.583361660370129 -0.7096380568159246 2.627443331396076
89 54 7 0.7176646009927614 0.14583507047894875 1.781180052904852
90 54 7 1.4686663133664617 -0.8344457326855073 1.3267901288548754
91 54 7 0.361632870118724 -0.5033942748764606 0.7822535743100142
92 54 7 0.743005224345681 -1.8036476816988396 1.2123491036154312
1044 57 4 0.7083064219998793 -0.7566502554014818 -0.38055108988833836
94 53 7 -0.006838066632596057 0.9287041048048746 -1.508267426083484
95 53 7 -0.9003762349096639 0.2413544374701633 -1.331124669928587
96 53 7 -1.812700774757642 -0.8133709818789493 -1.090312114800185
97 53 7 -1.3507961520168275 -1.936548749687132 -0.5069610422490456
98 53 7 -2.148651390445219 -2.9408291650139557 -0.46538487077552176
99 2 8 1.677577134701148 -7.32561843559972 3.063171641544915
100 2 8 1.434071594560678 -7.627927161831137 1.5766387908685775
101 2 8 1.0289967909130433 -9.422676002579923 1.1916962604345958
102 2 8 0.1835246533252387 -8.03385933117818 1.6240126555381258
103 2 8 -1.4086947563871723 -8.220930996679296 1.1601250683644357
104 2 8 -2.7077312379708216 -7.513808266323373 0.9130887327487905
105 2 8 -1.690329052824021 -8.767390090457543 0.009545628500451136
106 2 8 -1.9859463890212823 -7.997316431010758 -1.0975745727202573
107 2 8 -2.8240560728156527 -7.595208669380257 -0.6614339544435401
108 2 8 -3.741265902541938 -8.857142862173024 -0.8553502768315766
109 2 8 -4.153266378620237 -9.719842502441185 -2.001090612200503
110 2 8 -5.338098874823814 -9.010446551533667 -1.940813453973653
111 2 8 -5.115958327787571 -8.064801326072516 -1.2002238760923414
112 2 8 -6.0085658394266055 -9.096707715210446 -0.3207619429883116
113 2 8 -6.413980314951227 -10.03488004584472 0.22846071214115726
1024 57 5 -4.183364402909016 -11.648928234366846 -1.022689771775587
115 39 8 -5.314576477345217 -10.856953801737582 2.612263427539102
116 39 8 -7.039069722904348 -10.784533088969454 2.8793470194971604
117 39 8 -6.281016127327282 -9.910136082248682 2.3834820374280428
118 39 8 -5.338883499694615 -10.537695562750516 1.484457705052873
119 39 8 -4.58901918137604 -8.943534062581502 1.4409756213193305
120 39 8 -6.121574731875644 -8.526350927734605 2.456929369291985
121 39 8 -5.2628137099876815 -7.155094281605128 3.384945505588183
122 39 8 -4.807008761414082 -8.073965104062083 2.5497630400177616
123 39 8 -4.4164714266281 -8.557368566882369 3.5605127590157277
124 39 8 -3.38796045465033 -9.103625865540963 3.8871147281583904
125 39 8 -3.6562341593165093 -8.579395940187691 2.6320789203478534
126 39 8 -2.978917894291243 -9.357550465546064 2.838634047614154
127 39 8 -3.226732348155312 -10.312211300640001 2.596108932509783
128 39 8 -3.693622401963319 -11.402601204742965 3.6119908128726235
129 39 8 -4.937178331190032 -12.660900497257856 3.3057155014686437
130 39 8 -6.106511666710448 -13.267582107869702 2.2145922052054523
131 39 8 -7.466407257009323 -13.27737739174601 2.195191031750167
132 39 8 -8.21667772131701 -12.17901849329475 3.134447694269193
133 39 8 -8.450178542692862 -12.859240623252262 1.9921112955797646
134 39 8 -9.104387502005792 -12.909902620740306 1.090007001359655
1025 57 5 -7.317444159802301 -16.798882677563647 -5.505169499153389
136 37 7 -6.058455987702099 -14.709582814741575 -0.36730801448338274
137 37 7 -5.87892777922233 -16.1727942216752 -0.7328348411233504
138 37 7 -4.189637296758244 -16.01923750386948 -0.1066875383114602
139 37 7 -4.397962011232848 -17.48102610584678 -0.033058140003640595
140 37 7 -2.811144658467077 -16.19204222880038 0.1801575483458746
141 37 7 -1.906298138877231 -15.601947657888427 0.3614895204523521
142 37 7 -1.8227358253954886 -15.102490661630855 1.4941767414885503
143 37 7 -2.3131914492844237 -14.335231145334332 2.853518437473067
144 37 7 -2.340849687906262 -13.825443472924569 1.6297058698208693
145 37 7 -3.957785496701059 -14.037644828856568 1.8225977457868558
146 37 7 -5.172190666211083 -13.102962191847691 1.7521383102174668
147 37 7 -6.654402647989715 -12.106593707193595 1.7242960795889781
148 3 8 -1.8860316513222788 12.314389066446674 18.08858161997765
149 3 8 -0.23685076919242942 11.382065540755248 18.21547295439212
150 3 8 -0.20032139644981298 11.348066624262387 19.627867074914946
151 3 8 -0.256907273104518 9.869324038125608 20.626210182906288
152 3 8 0.7715032391985491 9.737531281531924 19.566601663947804
153 3 8 -0.3930992065281171 8.514267635815452 19.638138333519024
154 3 8 -1.4367362388197964 7.783293987608073 19.380036000351005
155 3 8 -1.9140073859371174 9.46695982492812 18.85003729343968
156 3 8 -3.398191516953182 9.568569047758443 18.77430297026434
157 3 8 -3.842465386779681 7.4649886096007325 18.242423393787124
158 3 8 -2.7432636810042696 8.007741393853982 17.670598358155072
159 3 8 -2.7875411246048434 7.53583707877261 19.006199835264407
160 3 8 -2.8230817493539115 6.191683152126756 19.95986494350634
161 3 8 -1.1716397770796148 6.388949932145396 19.8560304928576
162 3 8 -2.0038495479246663 4.577815019749421 19.549832763024668
163 3 8 -3.908472834892422 5.4479032525080395 19.563435682740785
164 3 8 -5.149727457815882 4.905896816566397 19.36971384437306
165 3 8 -4.39075980151282 5.358312225054091 21.087323759831836
1031 57 10 -4.540636587117679 6.994047389887659 21.286593779484345
167 3 8 -4.072498581659254 7.9634044212117 22.477084973217213
1043 57 10 -4.910669498861993 7.331604711058088 23.055899777031357
169 3 8 -4.85477382614501 6.500479988094766 24.079550304844755
170 3 8 -5.097289840658639 4.753040647649163 23.305491565424145
171 3 8 -5.61371463294673 3.587941364419246 23.170067361257985
172 3 8 -5.546034028865641 3.6778022946111997 24.96521895712144
173 3 8 -4.369313922411612 2.5177485807898883 25.13058237087873
174 3 8 -4.467647055790334 1.3266567864171899 25.65816128337968
175 3 8 -3.542426747394557 0.24381234583664171 25.81636895979261
176 3 8 -2.7566470042322053 -0.5478371181011172 25.421841313910562
177 3 8 -4.0764634659658405 -0.6266251541396295 25.04165999424773
178 3 8 -4.5231537554951995 -0.7485078707693792 26.057105762474716
179 3 8 -3.8120048828243025 -1.0584302568966315 27.415569695222512
180 3 8 -2.6211757054955434 -0.6815845751908437 27.775325741748862
181 3 8 -0.7974762005552162 -1.8956667481680127 28.289246655847712
182 3 8 -2.3010811704779766 -2.3362254076366953 28.9267055004899
183 3 8 -1.0939507714919958 -1.4634647300538468 29.570945254293918
184 3 7 0.8818857877532081 -1.254570645041816 29.49716302379281
1028 57 9 0.9130622664480045 0.2652971496371821 28.781410074825928
1023 57 9 1.3818538922553807 1.035140905887063 26.958287443217817
187 3 7 1.1563075734756287 -0.9849900590635728 26.587344092790854
188 3 7 1.1207005358358615 -0.4824922705131384 24.66326751887238
189 3 7 -0.6599513984520647 -0.8987261255141576 24.4283864642882
190 3 7 -1.372753832413932 -2.548910775995765 24.641707253860034
191 3 7 -2.951098528653157 -3.0969575249202532 25.19228646658499
192 3 7 -2.570356995106315 -4.048735889820261 25.07920472188474
193 3 7 -3.6014489340694773 -5.759507763320141 23.998734028041245
194 3 7 -3.182036768766843 -6.534294224575535 23.663955033594046
195 3 7 -2.262332681126116 -7.837093420881716 23.248799735770174
196 3 7 -1.8586729562062387 -6.873251012027941 22.703841623559626
197 4 8 3.310981733781249 -4.127630753271584 12.412796538665349
198 4 8 2.9944493608056226 -2.7205901125636767 11.630724895542102
199 4 8 1.94667988272854 -3.6990758724934945 11.936130827439289
200 4 8 1.7303851439566549 -4.148348703449786 12.854237103806577
201 4 8 1.8625010923920806 -3.021960749690833 13.69982057099258
202 4 8 1.2331828776495435 -3.9557779502460013 14.127216582250089
203 4 8 0.2988051678833349 -2.645224678673472 15.003541337095697
204 4 8 1.441732824657255 -2.7738579171801545 16.432176592083938
205 4 8 2.538645943384293 -3.1120996303597797 17.993809299835554
206 4 8 3.572293316112542 -3.17517507338759 17.319138574179515
207 4 8 4.666564014822963 -3.0448602972108283 17.829990522954386
1056 57 10 5.280990368441934 -4.457447842999228 17.19214136069507
209 4 8 4.6406288130861535 -3.5063041357843305 16.227767387379682
210 4 8 4.357919295758011 -3.4984063527193463 15.131728921002631
211 4 8 4.680112379664674 -2.4778646092521797 14.49332946138146
212 4 8 5.15604440755799 -2.4908718246052666 12.143060703933784
213 4 8 6.081476130925623 -2.1162709918503175 13.143198202106039
214 4 8 7.284641087601844 -2.19956630187084 12.949527619720447
215 4 8 7.456422148739325 -1.227079335623949 13.42857081241145
1019 57 4 5.524460927552809 1.3179935680152632 11.304496819253245
217 27 8 6.3231629552860085 1.4808778192032919 9.800981871477829
218 27 8 6.097670953621638 0.4021986076824338 8.886913546840756
219 27 8 8.024035956691877 0.16430460573333738 9.933189429250524
220 27 8 9.048194789453238 -1.0871763297114474 9.603408013711082
221 27 8 9.354824366928064 -1.2308252081360553 10.536256839204425
222 27 8 8.681748648676532 0.006705172529043465 9.019835406210603
223 27 8 8.100948264859262 -1.3095705738975514 7.279380306487433
224 27 8 8.143492346520029 0.08771505382673563 6.891294413412065
225 27 8 8.783882789332132 0.8310060527733177 6.3364316056707874
226 27 8 6.981635888763441 1.1127972750213817 6.497508157309346
227 27 8 7.090738500241406 0.21240229378787123 5.120411730949913
228 27 8 6.1935059561673125 1.0208655612605289 3.836626795290293
229 27 8 7.125914430879133 1.901780976242642 5.057940760958398
1054 57 10 8.08509321210972 0.9940769230197312 4.333970557992917
231 27 8 9.571409723659762 0.3201858422565783 4.29727966650623
232 27 8 10.81673024283702 -0.8704682177241034 4.388076972916555
233 27 7 10.022819982450605 -0.4683850309204341 5.35894964677529
234 27 7 8.826339363137539 -1.552057294747327 4.70552364115026
235 27 7 9.946152689107972 -2.967129182256778 3.953976421461837
236 27 7 9.42879394812541 -3.5176967144272457 1.9669531990334848
237 27 7 9.318309869342842 -2.0313388922026645 0.9436242424129101
238 27 7 8.484426615567711 -4.271573367452053 1.302931487427299
239 27 7 7.458884770980457 -3.359315058151518 2.0948197567065785
240 27 7 6.198596288939138 -1.7518747396577612 2.3088093350132444
241 27 7 6.309869375831903 -3.4230042465460055 2.904899007842105
242 27 7 7.342708171892937 -2.144048219833458 2.5863113946869807
243 27 7 9.085487984530108 -1.5729856242962397 2.074807087569031
244 27 7 8.240128475801633 -0.6644344321342742 3.7143860077096336
245 27 7 9.376630490276202 -1.0529873993075871 3.4996538961272736
246 57 5 0.6478057719748563 4.032495336196308 5.845106051757439
1052 57 5 -1.2188923170414239 1.9377736498133793 6.034105636885818
248 28 8 -4.429879157164193 1.2045106836696369 3.165741177817985
249 28 8 -4.475808141681366 1.2702460126337898 4.512953446706878
250 28 8 -3.330289487745244 2.6442132158262384 4.745398322532825
251 28 8 -1.9200904417913367 3.857259286586941 4.304743880852855
252 28 8 -1.0826961989039527 2.7447997328873193 5.108590942230771
253 28 8 -1.2861900975296083 3.2970623197570696 6.5534887710523035
254 28 8 -2.6158635066115696 2.441975415074018 6.043648383693138
1071 57 10 -4.063029939084031 3.341487278242124 6.494142555226109
256 28 8 -4.125163500398889 4.865941265189024 6.417630517578259
257 28 8 -2.6900471825162517 5.242769463039766 6.120707601955794
258 28 8 -2.978447502180461 4.884462495492783 7.530096513183374
259 28 8 -4.00308961013659 5.270058300553474 8.522391320431472
260 28 8 -5.0283938806390855 4.438301456857227 9.411456319876162
261 28 8 -3.583764486149872 4.638418789126552 9.762334368991727
262 28 8 -2.2790665999193065 4.3574288173846965 9.642583303615227
1069 57 10 -4.25152500242919 2.9464281261219365 9.511208055989329
264 28 8 -4.25687894315912 3.3354703203390432 11.24623953214342
265 28 8 -2.99231973815066 4.36112700856687 11.379826003584405
266 28 8 -2.8325231026674116 3.6734833496689556 10.524688891721947
267 28 8 -1.8185965632000338 3.1722546989607348 11.844299100797452
268 28 8 -1.2179192679185389 1.0846537601972563 11.965859653638516
1034 57 4 -8.330833403701867 -2.3819814886555917 9.747093681337198
270 41 8 -3.7676172890929696 -1.2309434531468908 12.139165364558352
271 41 8 -4.378641327726187 -1.0723780572193866 13.121053346844883
272 41 8 -3.500038389854274 -2.2242768363601035 14.427094457123866
273 41 8 -4.625855471288074 -2.486870579750673 14.593640751214254
274 41 8 -4.344745509057593 -3.58895753923276 13.236425218389247
275 41 8 -4.102171324843998 -4.585418758870275 12.102079454184883
276 41 8 -3.230282302662028 -5.344111041116834 11.290293407400796
1047 57 5 -4.011281932924323 -2.40656751226564 9.098200994012398
1012 57 4 -1.245597775870196 -2.3110713549359914 3.815320648970624
1026 57 4 -6.255068647819848 -2.3236153918938824 10.170650720137553
280 45 8 -7.689916563368754 -1.0661079087704917 8.390303060559269
281 45 8 -6.98524307389051 -2.196078898223925 7.452818189646615
1067 57 9 -5.791502808398511 -2.258890548504162 7.974209012247343
283 45 7 -4.322962924142697 -3.48746801107758 7.4904235996245605
284 45 7 -4.1168453633051305 -3.2448846108950096 5.45232171753669
285 45 7 -5.42758276077005 -3.1427108137933106 5.798139000390976
286 45 7 -6.186825614778107 -3.2898531776962794 6.90596308052977
287 45 7 -7.8559416972503495 -2.961765526266149 7.135964287148337
288 45 7 -8.475867846421874 -4.141023518502816 6.868107718143697
289 45 7 -8.553428219686936 -4.4357883501866135 5.503678115456314
290 45 7 -8.978654043743395 -5.736219078102972 6.354674187856344
291 45 7 -9.284638515697642 -5.847466174412706 5.15202983611638
292 45 7 -10.04094230632886 -4.568325833011363 5.300530602742958
293 45 7 -10.39970976842034 -3.0097565117658824 4.166009526993427
294 45 7 -9.538414783429417 -1.4290722366029593 4.230005734529241
295 5 8 4.236607024384362 15.062673693410304 8.258718846081734
296 5 8 3.2807361433765045 13.545293996384185 7.300334721634263
297 5 8 2.172041023171708 12.960522810231009 7.399960271717139
298 5 8 1.5076915851571655 12.937639020065753 8.661692400709574
299 5 8 0.6168395306033526 14.313151872851735 8.769648044022725
300 5 8 1.5048645711213817 14.906033404854226 8.334092947104198
301 5 8 1.539670420295125 14.211863536656173 9.377095762271788
302 5 8 0.6645839297908073 13.72175000451386 10.367757388445876
303 5 8 0.5985243564461273 12.64600868460606 10.155929081039599
304 5 8 1.3210167990922739 12.065160843392132 10.974524902337073
305 5 8 1.3577358690630281 11.492576381048272 9.345819473019315
306 5 8 1.3372860960889361 9.899196401270757 9.815755411058712
307 5 8 2.002829499293655 10.68963436539755 9.983407220907797
308 5 8 2.596757546392577 11.680724936738262 10.622072405967947
309 5 8 3.1831866247678016 10.728776220229893 10.782353971766018
310 5 8 3.321791448799748 11.730328473872278 9.93268303493875
311 5 8 3.1185199921242934 12.556876744449577 10.837144329836578
1011 57 5 5.69625490262366 8.384100844624419 7.324706795762314
313 40 8 3.3404377221679895 8.027943531074158 8.350732735383298
314 40 8 1.758367103419572 7.902469095851811 9.354658235567955
315 40 8 2.242534086570108 6.151810527764651 9.866768487764904
316 40 8 2.5807228347083533 4.936646904387033 9.041110264759919
317 40 8 2.8946799788109936 3.893075931517569 9.943625248263144
318 40 8 3.2752233191811726 2.215515544515538 9.688212141238592
319 40 8 3.6479887310273007 2.041301053937121 7.308607576442539
320 40 8 3.5301133853001914 2.0213086497376525 6.124796658797628
321 40 8 2.9636923361100926 1.017774134376925 4.4895247854803415
322 40 8 2.0647882170174365 1.1296715475252237 5.76511689866357
323 40 8 1.2848921812862228 2.5125786921988746 5.269440705599294
324 40 8 1.0167539390160434 2.1099273401507848 7.098331270888576
325 40 8 -0.1491775379418889 3.267029805151476 6.923458464193997
326 40 8 -1.4783283012844421 4.739456816319352 7.0378915426380395
1064 57 10 -0.47837658432886454 4.36224236097968 7.058500839443585
328 40 8 -1.834434463794813 2.3737056317358327 7.38269457658087
329 40 8 -0.8180618696396377 2.946235853888461 8.116412054067126
330 40 8 -0.9806760142605928 3.957225739370633 8.417321146176366
331 40 7 0.02969593200705705 3.7889021801822254 9.353377813769733
332 40 7 0.6117208893252161 3.282589585622607 10.41440625414299
333 40 7 0.10167536283217944 2.3446755615597805 11.067837645946215
334 40 7 0.12342897729483701 2.087050583001065 12.555921259010331
335 40 7 0.7263209583054767 2.9668351707719745 11.913143492445794
336 40 7 1.6207759665532677 2.9745182680700304 12.412840435296516
337 40 7 1.9703874313235834 4.397577834627461 13.015034943256165
338 40 7 0.548472860052641 4.089814693803939 13.577489025461764
339 40 7 1.3804612830640626 5.14883172364323 14.65151970922576
340 40 7 0.13076617508133365 5.885821907213344 14.791173594131784
341 40 7 1.1487661209492706 5.313250016819 16.65601481628911
342 40 7 0.61273008612603 5.946717391325543 18.277812194055137
343 40 7 -0.14096876180023643 5.751129127062112 19.49476131532774
344 6 8 7.590504984169806 17.702746579200273 -7.956984264383948
345 6 8 8.187968569766117 18.154878277795206 -8.772527271723376
346 6 8 6.545750207683698 17.53398279372346 -9.042851534657556
347 6 8 7.429217059118476 16.485244853480033 -8.408947745037405
348 6 8 8.944982052829326 16.488920437046158 -7.862021362967378
349 6 8 7.904399285409248 15.621201033227653 -7.414706553709597
350 6 8 8.02755793189419 14.796247003145838 -8.295345373040046
351 6 8 8.313677007089785 15.437980717343411 -9.746033699668343
352 6 8 7.343183657345135 15.99387757392386 -10.093522231434696
353 6 8 8.198547934091529 14.4518874673738 -10.20678494716691
354 6 8 7.590287444946181 14.779535965113062 -12.095385607608314
355 6 8 8.42938572657588 14.046176528777995 -13.0699428459179
356 6 8 8.747576309936372 11.647513441641475 -12.300349134534121
357 6 8 8.525812058285538 10.018213404486294 -12.627215110614118
358 6 8 7.558328452224747 9.51165266135083 -11.077531509796172
359 6 8 9.145545274222386 10.091104116296275 -10.589520851446164
1057 57 10 9.125169198646704 9.31489817367893 -11.789136146988154
1048 57 10 11.008757959169996 8.848117137551482 -11.406783069839102
1066 57 10 11.422937935303263 7.384646116723834 -12.066101706719342
1051 57 10 11.70508892070857 6.221585497053539 -12.79835678104807
364 6 8 9.557506392896018 5.603189082769629 -11.98051359991585
1063 57 10 10.095089100708796 4.690120551612582 -11.299055560864831
366 6 8 9.02789768777795 4.093920473498124 -11.38770518593151
367 6 8 9.748081391114983 3.486290177262301 -12.532885607333755
368 6 8 9.48589440128493 2.400890361141395 -14.181651245543142
369 6 8 8.86256198266717 3.303811274286908 -13.46053555691383
370 6 8 7.919913812382133 5.065271359054445 -13.789420297213612
1038 57 5 8.604345406693795 7.478490785643446 -13.507706499460408
1035 57 5 14.625090638050946 5.074920615035157 -17.192586807754793
373 38 8 13.267632532022475 5.528669038000755 -16.84056670227016
374 38 8 12.622499277898275 4.806958361097716 -18.111493156248734
375 38 8 12.269792576371964 3.6339597123756495 -18.588840059620708
376 38 8 10.899553628343584 4.2643345533520485 -18.90794120359584
377 38 8 10.417828325520745 3.325845550390591 -17.863100181796334
378 38 8 12.161080365484533 2.279011284627961 -17.505988699153715
379 38 8 12.694881836959816 1.7658425835878504 -18.232975109858483
380 38 7 11.798906345656258 0.9099335471710412 -16.68483615798163
381 38 7 12.076232195719886 0.7914534658609477 -17.948034831792683
382 38 7 11.142667228411323 -0.11273855811828938 -18.234044371730096
383 38 7 12.479898181702428 -0.14712851363639537 -19.555212718987566
384 38 7 13.143456233642326 -1.125304256515627 -20.627824932555278
385 38 7 13.381885678000048 -0.08133948428834123 -20.632754705712816
386 38 7 14.778158496735735 -0.47661583972670785 -20.714639755067363
387 38 7 15.466606429748119 -1.7731111155943555 -22.158162761752664
388 38 7 16.19166519387311 -2.5508701987322846 -22.639531209834836
389 38 7 16.75335862564769 -1.2325575036912702 -23.23634329390885
390 38 7 16.2885247982807 0.2612785361315502 -23.277587036208146
391 38 7 17.29608312278691 1.2331097812900194 -22.43505662266197
392 38 7 18.35266206610329 0.7659577487408014 -21.538672885980525
393 7 8 -4.5195366853182914 -3.0457949270656504 -16.64319330655112
394 7 8 -5.610474987434539 -1.8727552770250504 -16.870945781326856
395 7 8 -6.368260763629575 -3.154869427672994 -15.257493291304487
396 7 8 -6.074157543944062 -3.8622564362012013 -13.819145937197023
397 7 8 -6.060139923335729 -4.308367891487232 -12.077816482168764
398 7 8 -6.837247402550091 -3.322213401063149 -12.97508005150398
399 7 8 -7.530181449179117 -1.7397098829061015 -12.056282549718583
400 7 8 -7.50679804229913 -0.6960234558336014 -12.219479742361008
401 7 8 -5.958392160251006 -0.6041192124392752 -12.24756060915443
402 7 8 -6.378222203455438 -1.2535007187755205 -11.295966098829929
403 7 8 -4.289964295028724 -0.5950423635853689 -11.580015839446572
404 7 8 -4.297238902929957 0.8152577999404056 -12.026635722609791
405 7 8 -5.290058481528555 0.549980083054943 -11.055780059547402
406 7 8 -6.435808967146382 0.12252902722167407 -10.727577439541475
407 7 8 -7.420597217289192 0.4936839386980286 -9.674621572196832
408 7 8 -8.483470012247608 -1.3459912865786894 -9.392461067137152
1010 57 4 -1.6810366642300816 -0.3914527674968447 -10.761499890552074
1022 57 4 -7.15030150003289 0.42471518506243455 -6.921514944590291
1016 57 4 -6.375838858071141 4.18997254065995 -5.850875506600526
1029 57 4 -3.7682674826769604 -2.82683433841915 -5.436347781683593
413 47 8 -4.611179404918994 -2.119593127658345 -7.6470842302623225
414 47 8 -5.018815456780563 -1.3029256841371417 -8.403400431590779
415 47 8 -5.906812195021953 -0.16279180875778448 -7.373661642743602
416 47 8 -7.495855479587975 -1.1547337431560472 -7.801504624029392
1021 57 5 -8.851377966159843 3.910200690023854 -8.601568975693667
418 29 8 -7.239412112983298 -1.6974721328865325 -5.2412576564676
419 29 8 -7.238299963390088 -2.965318627890438 -4.646622045831069
420 29 8 -8.792443324983209 -1.6414813180732124 -4.456954052170783
421 29 8 -10.017598446744962 -2.3193593596622883 -4.503210626884492
422 29 8 -10.719883832619571 -1.8884732656939793 -5.51029602298809
423 29 8 -10.342434047136829 -2.5596044641794595 -7.295621447882132
424 29 8 -11.185998318588089 -1.62196172023511 -7.267808199403719
425 29 8 -11.150036271614828 -2.789001105421447 -6.531282908947518
426 29 8 -11.122117886919904 -3.2414237908745505 -7.735483421217434
427 29 8 -11.603541956887033 -4.949002649196513 -7.273081067192377
428 29 8 -11.9690076768977 -6.224615741462821 -7.760948017081768
429 29 7 -12.330367625147062 -4.9605171426538055 -8.516208632037326
430 29 7 -14.54557884970295 -5.396605162553498 -9.142082537127171
431 29 7 -14.183448000158531 -5.7240891348696 -7.560129961701241
432 29 7 -13.309894926147098 -6.943990660303113 -7.014928192197874
433 29 7 -13.326111895290195 -6.745566762585755 -5.834066763236085
434 29 7 -12.1954375234443 -7.5901678061131514 -7.104678115258359
435 29 7 -13.327113355597131 -8.108086392093883 -8.29323566607129
436 29 7 -14.452279941940617 -7.408858183636693 -9.258444539788542
437 29 7 -15.940484284072358 -7.604467181707275 -8.224049958507788
438 29 7 -15.372111173991788 -8.507998147671417 -6.74921376481084
439 29 7 -16.24542187380299 -7.7071387067225485 -4.973632717583543
440 29 7 -15.296287231166819 -8.090368965162341 -5.394389686910969
441 29 7 -14.490008242277705 -6.443155251915294 -5.754042268287583
442 8 8 -0.8377747817109912 16.00786768544963 0.5602890084999311
443 8 8 -1.806675612360741 16.196366501209795 1.1457308122586731
444 8 8 -2.6154421175063796 16.369040616733077 1.7368976598601191
445 8 8 -3.2828543493139386 15.763776945239282 0.4885169085913492
446 8 8 -2.4845527844772524 14.783524205140301 0.3442675611613391
447 8 8 -3.9206986659275977 14.83961620694814 -0.30473670045761353
448 8 8 -4.018446660292105 14.607165902318231 -1.723890842137141
449 8 8 -3.7908987888469405 14.083447730018001 -2.7990616490990727
450 8 8 -2.353543586891684 13.456052262037986 -3.3369577629386615
451 8 8 -2.0507014118979114 12.640559848044695 -2.6354504398628085
452 8 8 -2.0453054779671853 11.691723107173116 -1.5918069670023263
453 8 8 -0.9364640101538688 10.708939113985378 -2.089336238336714
454 8 8 -2.306797624463895 10.786555502493055 -1.013668836639891
455 8 8 -3.359321798288986 10.839248627718264 -0.30409731123058176