LAMMPS data file via write_data, version 10 Feb 2021, timestep = 100000

248 atoms
3 atom types
166 bonds
1 bond types

-50 50 xlo xhi
-50 50 ylo yhi
-50 50 zlo zhi

Masses

1 1
2 1
3 1

Atoms # bond

237 2 3 -7.063497024026719 -13.972731401491464 -44.94006376318857 0 0 0
170 2 3 -8.075499289168325 -19.999431237330334 -38.43390037153921 0 0 0
155 2 3 1.5969205213734117 24.745207442602208 -39.17543190148552 0 0 0
233 2 3 9.681269746795762 2.746433562169213 -35.88819077321839 0 0 0
192 2 3 -27.103646687232967 6.354718910851713 -37.60650635581208 0 0 0
247 2 3 16.548892553553678 -1.766218840945347 -33.79012553637692 0 0 0
207 2 3 30.464931160167925 5.723864144972982 -31.87949386931126 0 0 0
213 2 3 -33.323789254009114 -21.09901840956916 -30.409253378476354 0 0 0
158 2 3 -15.494551998904031 -9.472243064719011 -29.161671334649892 0 0 0
204 2 3 29.83236518451151 18.04422225116606 -30.619401584398577 0 0 0
224 2 3 6.099152629513936 -18.052091286962902 -27.16669788013249 0 0 0
244 2 3 -16.902372866212193 7.655925576427398 -24.80351641501354 0 0 0
215 2 3 5.967577577937773 -40.52425814475642 -22.732354503897728 0 0 0
169 2 3 -15.018067400898582 -25.767264049134912 -22.559513164844127 0 0 0
198 2 3 -0.12370060925202585 -13.006721134051565 -22.39075092483516 0 0 0
196 2 3 36.4679949949784 -3.932880661819743 -22.777828663698145 0 0 0
185 2 3 34.704661781111106 27.436186973684695 -22.91423674662732 0 0 0
231 2 3 -33.946255260991244 -22.028965030230633 -19.546977728968407 0 0 0
201 2 3 -16.093075022691412 -12.370293212008804 -19.102489564821195 0 0 0
151 2 3 -13.07488476393978 -9.43059165108491 -21.30407598687296 0 0 0
225 2 3 -25.749253962449558 -37.35918259644754 -16.470742783720215 0 0 0
175 2 3 -30.174764397560914 27.261998771731577 -16.57709789759978 0 0 0
229 2 3 15.475907231906897 -21.70504475251848 -15.097549512257087 0 0 0
203 2 3 -24.99059196795348 9.197728964072006 -14.378040664588822 0 0 0
214 2 3 -38.743632693593455 26.603792640052536 -13.73140491333822 0 0 0
243 2 3 -16.988032815599972 27.97471276238109 -12.195129854483802 0 0 0
178 2 3 27.090579095781138 -30.961185433693615 -10.854882755175536 0 0 0
205 2 3 13.619088225177293 39.37377701455596 -10.004413677086076 0 0 0
176 2 3 -6.2911633415243475 48.61523428236882 -12.86428661666872 0 0 0
153 2 3 -12.647596086667026 -37.973831221678154 -7.680491570746288 0 0 0
171 2 3 2.629547489287821 -29.66553024930785 -6.162347719083925 0 0 0
208 2 3 9.695682189410762 -22.89972290785686 -8.578224217271844 0 0 0
210 2 3 38.67206859600906 -11.642122438050189 -7.043428650382181 0 0 0
245 2 3 -31.544259366227664 8.229519965611027 -8.090851169256895 0 0 0
227 2 3 17.32041692571729 37.563429984140996 -5.782730695421272 0 0 0
174 2 3 -39.335399482261344 -14.74663802208805 -3.85256558476325 0 0 0
193 2 3 -5.5189643705633875 -12.934401765577496 -4.395515579923139 0 0 0
248 2 3 22.52129439016314 -13.282039228773051 -5.409774056302723 0 0 0
190 2 3 -14.201829356653953 -11.373648199191212 -5.751004637354512 0 0 0
75 1 1 -4.104864870662259 -0.37156502297620736 -4.510219691497953 0 0 0
28 1 1 2.1172336955060644 -0.22196745071921462 -3.969260287890468 0 0 0
91 1 1 2.2819882447983324 -2.0256717166055185 -3.516148918149078 0 0 0
54 1 1 1.2856379430165987 -2.2347516566540038 -3.7783530023540743 0 0 0
20 1 2 1.2006842661760104 -1.1706206761585805 -3.250149916717551 0 0 0
88 1 1 4.760139152174562 -0.7380055777708099 -5.5420248386795326 0 0 0
83 1 1 4.483284092526749 -1.6538092708348566 -3.891661665517349 0 0 0
52 1 1 4.118728413928637 -1.841155192738967 -5.085228372007196 0 0 0
11 1 2 4.501389663390218 -0.27002873131648975 -3.693161892346882 0 0 0
43 1 1 -4.333164390167212 0.71467211914882 -4.056086375638089 0 0 0
72 1 1 -4.031626242721066 2.7311226006083293 -3.428213359228246 0 0 0
76 1 1 1.0596726467072122 0.3179133804331685 -4.088256626965625 0 0 0
13 1 2 1.3589237414661843 1.363986334500303 -4.441693280899093 0 0 0
138 1 1 1.7798673938831233 2.34667976308036 -4.950062544817523 0 0 0
121 1 1 2.060370859218901 0.5777428312340825 -4.9443198230297005 0 0 0
25 1 1 4.734636992204291 0.10449854673009386 -4.6654138572033235 0 0 0
105 1 1 3.4992726280747113 0.4829204383058254 -4.01385416009902 0 0 0
89 1 1 3.0917019162564343 1.265894398752532 -4.985451357388799 0 0 0
144 1 1 -3.3474886788504055 3.679298711000264 -3.7801507109908545 0 0 0
82 1 1 0.8556185433227123 3.18170091394207 -4.404826874335491 0 0 0
211 2 3 -31.367399725459304 16.161827547040037 -3.048897688398331 0 0 0
168 2 3 -38.25191983200719 28.05762398739593 -3.840039090694163 0 0 0
232 2 3 16.00229690653727 46.66354630155858 -4.614747446792943 0 0 0
172 2 3 11.580425668704095 -33.95322358613445 -2.5161755758530173 0 0 0
206 2 3 38.53447473184926 -22.80150662966898 -0.8037201536512832 0 0 0
217 2 3 -18.836551802964987 -11.151371912119862 -2.4983281367216317 0 0 0
57 1 1 0.46309005649894125 -7.3854049314722925 -0.5354821237408248 0 0 0
81 1 1 1.3566061103199485 -7.786363970510692 0.06210747576322127 0 0 0
27 1 1 1.7584721573328224 -7.679111523583529 -1.1068598237262444 0 0 0
67 1 1 -0.09656395995285653 -7.173972746521476 -1.4504660059916585 0 0 0
56 1 1 0.34991730255104125 -5.968017125190179 -1.682874798889909 0 0 0
95 1 1 0.9248917478750897 -4.144599815039532 -2.6378349643993 0 0 0
47 1 1 -0.14825425388556943 -4.925717162213293 -2.0260796701894987 0 0 0
148 1 1 1.9971648602666405 -3.5543678387663773 -0.9957166460432454 0 0 0
137 1 1 1.5000165389565852 -6.404035005950189 -0.38930855492770816 0 0 0
38 1 1 3.242007647307143 -4.513054595043848 0.3106503743784214 0 0 0
58 1 1 3.094553071657835 -3.6600869482057075 -0.690703249420567 0 0 0
139 1 1 -3.5985368852631963 -0.4306093116135212 -3.5465654377278995 0 0 0
48 1 1 -1.7194721121749226 -0.6391190444976599 -1.506287560963521 0 0 0
134 1 1 -1.5492359140136256 -1.5019401916732413 -2.2266803349129622 0 0 0
4 1 2 -0.645618333876723 -0.09906559492745085 -1.4824452518505589 0 0 0
49 1 1 -0.6723975646429643 -1.2101976913903176 -1.3173269029372057 0 0 0
85 1 1 -1.3613748522123776 0.16960719437951358 -2.588469786917947 0 0 0
36 1 1 2.2166278737378784 -0.45173999912742324 -2.687448277720394 0 0 0
78 1 1 2.0823319917280316 -2.949317976673595 -2.932169271591659 0 0 0
15 1 2 1.5183344544125352 -3.168541040107859 -1.945266195343442 0 0 0
2 1 2 -0.31726794628208127 -1.8620632497382332 -2.0719147672556892 0 0 0
55 1 1 0.26994650760738126 -1.9424263253330802 -3.1259581718993044 0 0 0
8 1 2 3.2516293330420343 -0.25445946888969395 -2.956974273349659 0 0 0
133 1 1 0.16466058546241893 -2.44085936033773 -1.1312585420289165 0 0 0
102 1 1 1.3690674359630028 -2.195582298448744 -1.4556420154884069 0 0 0
96 1 1 1.203958005053369 -0.9945705746041639 -1.6224172763961222 0 0 0
12 1 2 1.679931654751217 -0.3970168870373598 -0.49404314546710804 0 0 0
98 1 1 1.2265915774022793 -1.9643638266706942 -0.38919649119884037 0 0 0
86 1 1 0.572051433803538 0.07677388985488565 -0.6993555494537071 0 0 0
126 1 1 2.655399590182566 -0.2975511788808969 -1.694640958069266 0 0 0
136 1 1 4.325586234720795 -0.7403043726720685 -2.524814186041142 0 0 0
70 1 1 2.646093449934486 -1.226191142368991 -0.32720318791964187 0 0 0
21 1 2 -3.9285293808288846 0.4121687043441713 -2.514677681384152 0 0 0
93 1 1 -4.101962735290488 1.0297198263406986 -1.4986380949566522 0 0 0
109 1 1 -3.438878931019061 0.23418278398911674 -0.9563839267297667 0 0 0
100 1 1 -3.5605440364903007 1.4960732574972246 -3.430927991663421 0 0 0
140 1 1 -3.1417462509334104 2.112260259734862 0.40193315449051503 0 0 0
110 1 1 -2.18577563003028 0.7915336460238114 -1.7249883628445268 0 0 0
145 1 1 -2.9334768345952065 -0.5542175319771908 -1.7609543329915471 0 0 0
7 1 2 -1.2352095608445626 1.5325510704500493 -0.16982884446379148 0 0 0
124 1 1 -0.771410490743134 1.6241562296415009 -1.1467695820453163 0 0 0
113 1 1 -2.177231969876044 2.041483997045364 -0.5299695286157656 0 0 0
29 1 1 0.4242642141726932 -0.1861011246920122 -2.0244798695325534 0 0 0
63 1 1 -0.19772614237498884 1.081375919550986 0.12024996018228999 0 0 0
32 1 1 2.300553188247064 1.1504521825589644 -3.477322405939103 0 0 0
30 1 1 -0.14788715132131164 0.8823202914653704 -2.5033296008479566 0 0 0
10 1 2 2.25240429530813 1.586702122652159 -2.2421287573851183 0 0 0
46 1 1 -0.23518420986206967 2.0664120774591543 -2.2093825604752277 0 0 0
123 1 1 2.1404472866113062 0.5628570953253853 -0.057125740375415394 0 0 0
50 1 1 2.268713554670878 0.7548352518068251 -1.0739476295617914 0 0 0
103 1 1 2.017981943683186 2.131817038608006 -1.1260762828240254 0 0 0
61 1 1 3.2484091270976143 1.7696613434820905 -0.9894860594285769 0 0 0
90 1 1 0.23503399349067103 2.7841568778585315 0.02300692688901453 0 0 0
111 1 1 3.178764178461398 0.7371017036668903 -2.4614332399882555 0 0 0
141 1 1 4.445063075616401 1.84005207677952 -0.30807920177243464 0 0 0
60 1 1 4.096383880020337 2.905440773265976 -1.6680086327267607 0 0 0
24 1 1 4.843491102947074 2.027822043896828 -1.3888739622021755 0 0 0
80 1 1 -2.783652568403561 3.009454006921407 -0.6540029883498477 0 0 0
92 1 1 1.6244351013977794 2.526756189457243 0.3208896291813263 0 0 0
147 1 1 3.460707931613787 4.137003703597278 -2.023704098680416 0 0 0
188 2 3 7.227345624070417 -41.30028477013102 3.433424520684818 0 0 0
184 2 3 19.44898585619865 -37.692525748075795 1.8200721227884609 0 0 0
130 1 1 1.1783706471346733 -6.192809074485345 0.6078779558028536 0 0 0
200 2 3 13.824805197575035 -8.898381564917003 2.605183960637298 0 0 0
122 1 1 -0.30710648795331197 -4.499309017301287 1.348402033701306 0 0 0
68 1 1 -0.9525482628239685 -3.4269765072806355 1.5580194056990746 0 0 0
33 1 1 0.13451333188697093 -5.761419604295642 1.1914257330195284 0 0 0
5 1 2 1.9361359450499782 -4.1742337736749136 0.572510123945094 0 0 0
127 1 1 2.0724152073667956 -5.514117445922576 0.8474070268275588 0 0 0
18 1 2 0.23696896291020852 -5.773219707580926 -0.06861148705110572 0 0 0
39 1 1 1.2861603573403004 -4.824348705206927 -0.1257299634740614 0 0 0
31 1 1 2.7781335650035626 -4.869624400385821 1.3595318960383858 0 0 0
116 1 1 1.4666834847153567 -3.7756109619085434 1.5402480779853456 0 0 0
59 1 1 -1.7755474791596813 -2.4571413091704315 2.007483516956929 0 0 0
114 1 1 -1.2741128682609608 -1.6241173376408042 2.9603951342702546 0 0 0
94 1 1 -1.031910987033687 -0.48740775218823307 2.644853803439744 0 0 0
23 1 1 -0.28809515030398375 0.6135254550366694 2.248398255893909 0 0 0
142 1 1 2.7470485208821516 -1.9494020373662408 1.352302168759865 0 0 0
37 1 1 0.6891943663831186 -0.8160334822769402 -0.20378083632673263 0 0 0
135 1 1 1.7776787068092703 -2.8065196942065915 1.9492505015231048 0 0 0
26 1 1 3.0126116841073958 -2.5661175333757793 2.253604005252274 0 0 0
120 1 1 3.5519171624278747 -1.7576353582166482 0.697020547048101 0 0 0
179 2 3 27.129717584166606 -0.8913171477820743 3.0923598428363257 0 0 0
51 1 1 -4.421494538373061 1.3404561997899194 1.7034146865675615 0 0 0
128 1 1 -2.548467873506661 0.7498431780580007 3.0195243960199853 0 0 0
16 1 2 -3.3601260238703983 0.8236549845647091 2.318255969306628 0 0 0
106 1 1 -3.279988439879946 1.1246020005208606 0.9124082064108913 0 0 0
42 1 1 -3.6310440456006448 3.442173174938427 2.2700917632610933 0 0 0
73 1 1 -0.4589875450075627 2.5668473696917484 -0.8073539796179601 0 0 0
65 1 1 -2.7619404708656776 1.6190211877080591 1.804816431241533 0 0 0
117 1 1 -1.7868274338751182 1.539149851200531 2.346313295980823 0 0 0
6 1 2 -2.175069328218627 2.776671966333668 2.0601967249854294 0 0 0
1 1 1 -3.6975823006363537 3.4513366745312806 0.2513771793299641 0 0 0
107 1 1 -0.6383132041506624 2.228474700490198 2.0728488631441273 0 0 0
125 1 1 -2.5820182416445263 3.0475917075098646 3.113785481074549 0 0 0
104 1 1 0.31109039851182924 0.2652122387765597 0.6325333688151159 0 0 0
22 1 1 1.2444366856049767 2.778721317730305 1.455553244697511 0 0 0
64 1 1 -3.08697836078528 4.667543717772184 0.09346961830106318 0 0 0
115 1 1 -4.328810514083204 3.8882976383733965 1.0572798577506357 0 0 0
99 1 1 -2.162056444718537 3.7737828567577325 0.025077989521694356 0 0 0
118 1 1 -2.792638404760341 3.361862717991802 1.1749157754868016 0 0 0
77 1 1 -0.7672686297526479 4.686400200751743 3.3653803898462793 0 0 0
35 1 1 -3.2994306651428413 4.561439466402593 2.834919354448026 0 0 0
40 1 1 0.7962453274220235 3.5632040469465167 0.4629582054513646 0 0 0
69 1 1 0.9356557242049357 4.10412962038218 1.5731992225997238 0 0 0
79 1 1 0.20576521582245422 5.077350304740496 2.9037379661090568 0 0 0
108 1 1 -0.039193204884730444 4.835740522780568 1.8165336575650797 0 0 0
226 2 3 -18.81725423551226 -42.29636520416001 5.919131019424132 0 0 0
235 2 3 12.0972763304751 -10.815543435446944 6.133244431000995 0 0 0
41 1 1 -3.5427532838886164 0.18943965083953185 4.594630934548034 0 0 0
14 1 2 -1.850905422402128 -0.618750594542331 3.5396032627287095 0 0 0
131 1 1 -3.10965079291268 -0.9543870376163728 5.053337252655454 0 0 0
74 1 1 -2.264570452025722 -0.05377019813238691 4.596520215220054 0 0 0
66 1 1 -0.7405519896030307 -1.300239687094708 3.8764600576803754 0 0 0
3 1 2 -0.8028053708752453 -0.3888211263755559 4.410264485666268 0 0 0
71 1 1 -2.0441898736424386 -1.6899666467507752 5.299798398933179 0 0 0
34 1 1 -0.5855454308393451 -1.4332707914222038 4.985863410247199 0 0 0
129 1 1 0.2810372432598949 -0.426442860801166 4.813065776736941 0 0 0
45 1 1 1.3165032572592121 0.04322748822545043 4.330698323331679 0 0 0
53 1 1 -3.5429826142497363 2.4756409931920613 4.021552508197203 0 0 0
112 1 1 -2.889940875613945 1.1040149470038998 4.95432931459389 0 0 0
17 1 1 -2.1792525275815957 1.0794925077446613 4.10766444355717 0 0 0
132 1 1 -0.9746173171717195 0.6744136058339433 4.345540718423933 0 0 0
84 1 1 -2.4817701904588767 2.4067901305467023 4.530495835429049 0 0 0
19 1 2 -2.8301742872760705 3.567378183879404 4.130907878420483 0 0 0
9 1 2 -0.3595176247312123 1.2280819738158368 3.2549705059243284 0 0 0
101 1 1 -0.24492380539290684 1.5259850895290261 4.412437484286365 0 0 0
87 1 1 0.6194741045405254 0.8656302501287549 4.440582884810851 0 0 0
149 2 3 -44.60754490966938 5.915731567032616 5.559627336077151 0 0 0
119 1 1 -3.792377844536661 3.748602115241281 3.366230756158957 0 0 0
44 1 1 -0.366693199504654 3.9230930155615056 4.039947877795168 0 0 0
97 1 1 -0.38863000574702844 3.4839678868226813 5.205795348798127 0 0 0
143 1 1 -1.9349372946819423 4.529367681421589 3.694605593781031 0 0 0
146 1 1 -0.9769608312053868 4.649480795627049 4.451986128170688 0 0 0
62 1 1 -0.05638274824827246 2.74743678457046 4.278487868814496 0 0 0
181 2 3 10.354075685656593 28.819291294574406 8.516455065838763 0 0 0
228 2 3 8.800405638089233 -18.988465022091226 12.193563402839496 0 0 0
167 2 3 18.069404803885316 -19.780078390425974 9.633251947441424 0 0 0
219 2 3 43.608736695707094 -17.547385669093995 11.076310755164613 0 0 0
180 2 3 12.95638734961295 -10.667247879468466 10.37036492802727 0 0 0
221 2 3 -5.460359028146682 -37.09727843315743 14.969423571122656 0 0 0
154 2 3 29.28880146761121 -35.69436564791803 13.949805033621086 0 0 0
246 2 3 -20.076239331631403 -21.17139624662361 11.970232447364548 0 0 0
156 2 3 39.801156875816055 -13.529031904200238 14.47267595552938 0 0 0
163 2 3 42.92178960146682 -2.088173077155558 12.84849608474531 0 0 0
212 2 3 29.791109191657533 16.398405178638264 14.38763718159436 0 0 0
199 2 3 24.397952699736535 -26.026213723441668 16.794652035865177 0 0 0
164 2 3 -31.395429788934816 10.899764971806004 17.60992502428204 0 0 0
187 2 3 -1.4198282329266032 -42.991101880269774 19.571335465413004 0 0 0
223 2 3 -30.42942082731434 -5.175619140730482 18.66013885584843 0 0 0
216 2 3 -28.010480258171413 2.798919595027511 19.657478649420742 0 0 0
182 2 3 23.401975304496364 -0.0011225251861361628 19.47222400859606 0 0 0
218 2 3 -6.915099650554876 4.703756117267654 19.19511114489203 0 0 0
162 2 3 0.20107775410607942 41.69194281650878 19.572934422201154 0 0 0
152 2 3 15.63875405945533 -14.23891202874887 22.554836469552775 0 0 0
173 2 3 -38.339411849604616 -10.121616615671156 24.447574871730403 0 0 0
150 2 3 27.921898946006152 -13.575823180153032 22.181153087115568 0 0 0
157 2 3 31.10152799619278 8.158236203623794 25.244585229505425 0 0 0
183 2 3 -26.1947745962871 15.098115077913409 25.708634960333036 0 0 0
239 2 3 6.707486180140228 -41.37889309533553 26.0407693842523 0 0 0
189 2 3 21.604756152834216 -23.682204758085042 26.96416900870906 0 0 0
160 2 3 -3.09532005098419 -7.739697257041771 26.32073488450485 0 0 0
161 2 3 28.723191377232123 7.433201285362612 27.884797516366557 0 0 0
197 2 3 -23.560850128347337 16.626233439710113 24.45423573741796 0 0 0
209 2 3 -14.766799004609988 17.018608495382125 25.214851428565282 0 0 0
177 2 3 -15.212177287392105 13.149643377649022 30.417345645935843 0 0 0
236 2 3 -17.69667394248813 32.95772608380236 27.722320379559445 0 0 0
230 2 3 -28.470120432397582 -22.48137921742578 31.308451498592593 0 0 0
234 2 3 -6.456757402358049 -23.672991490215644 32.652518604981445 0 0 0
220 2 3 -17.073299104580496 -2.337038767618707 32.4114158842443 0 0 0
165 2 3 8.084780648903365 9.241014130021695 32.140084519449736 0 0 0
195 2 3 -13.199544672648862 -16.94925999396591 36.569556611237196 0 0 0
194 2 3 -27.13121956297995 -3.65084268432043 36.32969808067034 0 0 0
186 2 3 17.04192671329954 16.015105016169578 34.83916772767349 0 0 0
159 2 3 -0.1235115507840258 31.00328535941675 36.351117050197466 0 0 0
238 2 3 -14.150262651899181 -8.277541282233711 40.994574155526315 0 0 0
202 2 3 7.007325194153494 -3.1986834702781293 40.35423396480574 0 0 0
222 2 3 0.27426923380487733 -0.2094423237728978 40.11584935515019 0 0 0
191 2 3 -0.20116441022275888 11.450591463433405 43.377579600533146 0 0 0
166 2 3 3.7465154777177787 23.198134456215783 39.66259940159404 0 0 0
241 2 3 -7.311116324207039 -12.340924199560648 43.92173892403926 0 0 0
240 2 3 -3.2586329857141894 -10.559123400430575 45.741284048111005 0 0 0
242 2 3 18.075028111040684 -5.054826246675801 45.5711472281704 0 0 0

Velocities

237 -0.6433869395238391 -0.6654754016692005 -0.40579359604334864
170 -0.5404391201708882 0.4620790222364646 0.9928711971621613
155 0.10423636648228901 0.6313585725934869 0.7720488945826138
233 -0.3040161081852427 -0.6269255313405432 0.7394989163865567
192 0.1153403523067396 -1.0477066399156227 -0.6634001081885514
247 -1.191467017501812 -0.15561084978499262 -0.07005221847480782
207 0.7919876440887397 0.35108626363037604 0.05227985276519357
213 0.550713598970449 0.29550134287068314 -1.4620212814888833
158 0.06464588105317703 -0.3217114431765905 0.09823656991608488
204 0.17738204325303045 -0.35823378251650684 -0.10557399864374406
224 -0.3515246921395394 -0.42443103650677655 -0.17048166447537905
244 -0.6174714639821118 0.16089814067914665 -0.544976142054193
215 0.3956682974907294 0.9459197716081316 0.2916411199579237
169 -0.7206731082139233 -0.38001065698875597 -0.1462740762927653
198 0.4207964880016256 -0.2664835542729176 0.3444238475789014
196 -0.9262769338184506 0.24368446855630074 0.7055747189273192
185 0.17474302642536063 -0.1080513959336499 0.6238076490240965
231 -0.07989266026669262 -0.2025955373784702 -0.5886472819912942
201 -0.9828508461019964 -0.18953915528085813 1.0918751623927212
151 -0.057354861919514166 0.014373165768227072 0.5227746551876215
225 -0.3937586292120416 0.22103686105810488 -1.046703590716406
175 -0.7208133655964223 -0.5877246912611069 -0.7330168447434132
229 0.0808098210851356 -0.8711463799492437 -0.5041189117196457
203 0.35400773047429435 0.5945110284882905 -0.4280742846683815
214 -1.2455257214304152 0.7187599722122581 -0.10915158966255549
243 -1.1239318368119238 0.376614707341466 0.20762170108594932
178 -0.42812875228673114 -0.41403693993003726 -0.73285433890382
205 0.34178227248097426 0.8451530391215981 0.8615241729277727
176 0.18343447787258854 1.0678930151053447 -0.9017926034161097
153 0.23225253204487226 -0.27630626335005093 1.129313919083305
171 0.43255992622201483 -0.7404059377782295 0.8281670693614896
208 -0.5424414948107245 -0.12308748196255523 -0.46675730357893447
210 -0.3025979813377918 0.34915789943921155 0.13445488244312587
245 0.8204155752246588 0.3277141843139127 0.5173271676149337
227 -0.17579249560343072 -0.1521152217255467 1.6442240644653336
174 -0.263838698782541 -0.12184834652801803 -0.23976413693843238
193 0.19842629574047693 0.28582584417343704 -1.24594940025072
248 -0.7049308191917443 0.20910521616788091 -0.42648853537649767
190 0.16181793966606037 -0.19973084296555435 0.739645861856857
75 -0.31809573854514245 -0.7762297173606314 -0.6122386093894725
28 -0.0369283681455799 0.8141287158746725 -0.573714224863575
91 0.06905045188594115 0.26504661794290096 0.29528430680933887
54 0.2741009873689828 0.08891914400453475 1.2550382245652736
20 0.21318482685026902 0.28166932149084384 -0.5979447425037789
88 -0.45478618376448254 -0.9807183310461393 -0.40480835992725844
83 0.5507607685622788 -0.2895426818153815 0.1230359713631113
52 1.0694334035842163 -0.07160855450671667 -0.6632571932865499
11 -0.16155394649118943 0.28866096298019744 0.09496078776464763
43 -0.5580955209644661 0.17602730001317501 -0.2344829433174966
72 0.37623566608818765 -0.5018350441939581 0.7253717204091136
76 0.10038264525606182 0.3539933766576672 -0.31035210975428995
13 0.1866277728549772 0.7073590058925565 -0.15145900815746494
138 -0.20309407844897812 0.8377783334683905 0.3857455976256653
121 0.4291723553194338 -0.603378760769384 -0.43993840812512225
25 -0.31029970027509457 -1.1776242631737197 0.7516654438612349
105 0.44813627936172856 -0.5927094440388219 -0.08872241914003352
89 0.1557831662202715 -0.08800143000541015 0.0696927773377345
144 0.41953362301658004 -0.0021081515663203734 -0.6356908634851899
82 0.7255322103207043 -0.7107411188334194 -0.16639810946096686
211 -1.2778803102452236 -0.2241963161188467 0.3770681752242408
168 0.5264381846886163 0.11096255797567971 -0.5783325855419535
232 0.5958020143279666 1.1907217574466058 0.08151961076215923
172 -0.7394730489358231 -1.1273387603188307 0.2551595205731867
206 -0.5263198984879072 0.16319104479555252 -0.49073811434725634
217 0.4702640466145973 -0.42507036376913365 -0.39516520573987424
57 0.0811827119575863 -0.4565035941809036 -0.206130715680826
81 0.08273374003549068 -0.18612284539905338 0.04604150923776664
27 0.04017730661333717 0.8636530442454273 0.3798537908757384
67 -0.16305526317426908 0.1903454346740015 0.7621646810795848
56 0.09754149159787208 -0.6591165328430301 0.6000195489869777
95 0.6214222787149248 -0.975351462349476 -0.10525298688439862
47 -0.20891207414293164 -0.07318236729778506 -0.4261616486266875
148 0.0607188888779109 -0.18077145183713555 0.0897180005029392
137 0.47137589255784074 0.3906160466274026 0.6700271762973994
38 -1.1761825237006702 0.6648527751096905 0.7500069581409788
58 0.06350121160748783 -0.19630577340291008 0.3864525107273021
139 -0.8826531426362556 0.617295637580503 -0.13288338363036145
48 -0.8975174481296927 -0.17822692860952685 0.4885324365284348
134 -0.9814769587030229 2.1658937931182196 -0.5776404220211572
4 -0.23885681819892718 -0.15134764402773945 -0.08023393052237537
49 -0.43522927459074484 0.11949843192950209 -0.2044726273041149
85 -0.9416898178039061 0.32568237462324245 1.5241325174208398
36 -0.0039841507694709085 -1.4918423912432306 0.32261129728611776
78 0.7641709642386467 0.18351006810200526 -0.8463432555584258
15 0.5279569839552031 -0.251685115688764 -0.2928825129936954
2 0.5686372957846213 0.6083029564567721 -0.7257531906097344
55 0.4056565570125629 1.1127840753727785 0.6757386071910368
8 0.04922180881364139 0.43251447659393866 0.3008878712191437
133 -1.377831248593726 0.7532664240295516 -1.0318982898605311
102 -0.2117619029819617 -0.800840136522452 -0.08584186154697594
96 -1.0117678438535516 0.22780041142056792 -0.3299279499977673
12 -0.27229714622299794 0.8829586074096569 0.5631161793222316
98 -0.015554170189062879 0.48657866938112393 0.2790636879102583
86 0.17059580577707492 0.11177627153313034 -0.20031757763596492
126 -0.793323313973562 -0.16907183113744115 0.6711761201431874
136 -0.6535144690730811 -0.13834427675023114 0.024843380857299785
70 -1.1277782149217324 0.0013175385089418859 0.23634163726520602
21 -0.20908386753605723 -0.8699981399434348 0.7845055143067136
93 0.18588745138329676 0.00867899115349401 -0.6823712228680877
109 0.4983938307663291 -0.09767404050948622 0.7695921065305737
100 -0.020047924570596794 0.23337800927813257 -1.138671471732472
140 0.0695828855037157 -0.5586787850406009 1.116838363733535
110 -0.19226109447212197 -0.268017793581107 0.1999720858983483
145 0.08070673398717701 0.07279745249586679 -0.762865658665769
7 -0.8925963181000054 1.0557845052220571 0.6447188887807401
124 0.4062106802594859 -0.39752866890619803 0.3414463194240002
113 -0.15156756948038425 0.31180743848845005 -0.172541430310583
29 0.37002181880964813 -0.33795378072236065 -0.5162448029149075
63 0.4822726560658461 0.4626590787774555 0.47707846273560045
32 0.8354194471843056 0.004353694435758488 -0.4611993668061081
30 0.5876205450059975 0.7043980696193723 0.361523402660244
10 0.3637514276257934 0.05265944666620326 -0.43337573540818536
46 -0.8501626145175363 0.18442391125647967 -0.8264914484365027
123 -0.3328385671123184 -0.2338137421153153 0.5677621980406723
50 -0.4481133740510429 0.736899324828417 0.24020752624988687
103 0.4055581008225989 -0.5791462736507343 0.5385991485126993
61 0.023672488028742583 0.500811690109911 0.4222167161926594
90 -1.468102231202645 0.3456732953133788 -0.05337492034790548
111 -0.42452733355362976 0.23903290281771408 -0.501404680168898
141 0.7513027429819921 0.18527996074609981 -0.030385448413038522
60 1.0578989083159616 -0.7261085911600101 -0.6897648182755264
24 -0.14938754551832295 0.27072970568664145 0.012228240662360527
80 -0.45353289906914507 -0.21235158102590565 -0.4044596839501678
92 -0.3566769292175086 -0.09919785617045164 0.06968105535223205
147 -0.0700371814325653 0.435288650396695 0.43735388489286464
188 -0.7365611337543841 0.304615563114276 0.6317817108191127
184 -0.15536931969120368 1.755486497115508 -0.39142359892354417
130 1.187093159495967 0.13960232429533778 -0.10961051633582496
200 -0.6678818634551138 -0.04031356677271318 -0.6572672134485978
122 -0.8191762770811375 0.04423309606513181 0.08331737756007053
68 0.7696832478642167 -0.5088029451184467 0.696099868615647
33 -0.5908877371467136 0.6098039601137166 1.0767294510285499
5 0.46398013486500816 -0.8817395290909692 -0.10684792779993398
127 -0.4156700125997501 0.29044089020606395 0.25576636965441246
18 0.2279280861083749 -0.6212153159475223 0.1908094103520439
39 0.5002444802387905 0.2517622018335796 -1.6803315398060559
31 0.9599586433467179 -0.7979650899308899 -0.716363565228655
116 0.5475322315236197 0.2004436096882004 0.3106163530381368
59 -0.028586360512632324 0.2746021355968572 -0.32442730591943403
114 0.37922053109632237 0.8160529835059807 0.24736116290039994
94 0.3587949841326978 0.7823539829283821 0.33844667574452486
23 -0.4207158582469999 0.8822083575002246 0.5276795789650047
142 -0.49274131229227064 -0.5497760082028664 -0.2283884643418446
37 -0.14674111285471952 -0.2333442845161389 0.08823020776316862
135 0.006354033338701373 -1.1331977324630782 -0.3027883784933938
26 -0.5063062108307232 -0.2913065653096445 -0.6583508383332197
120 0.5755569331191208 -0.05346891019932215 -0.2848317982346523
179 -1.152903756127881 0.6842202888469322 0.037672160417389015
51 0.5270642240645441 -0.08817013793035104 -0.2706878436388163
128 0.544633279741471 0.6774054627474707 0.34350893894198486
16 0.07774900669400062 -0.8768707600021804 0.43522113620223046
106 0.9938844930480493 -1.2471489131927675 -0.053711218362217525
42 -0.5841971435623632 0.5620101761638102 -0.2648121143044885
73 0.013559255292066745 0.5701693651412053 0.005621959235324249
65 0.23252403697799157 0.10638808668033711 0.8647439241315076
117 0.20447037623719783 0.4087038873550258 1.3368838009628046
6 -0.31404960510382135 0.5412535644862115 -0.6252445336962135
1 -0.21176346789521297 0.7251584489002872 -0.6002721405356116
107 -0.9895361644698654 0.0315429479965514 -0.16899303869964946
125 -0.2834813461024772 0.3949139234346869 -0.12991962070892638
104 -0.5166048970352468 0.5659153681330729 0.09161778606111824
22 0.5851882479153724 -0.15629647790845477 0.5502578998559643
64 0.5935735496171574 -0.11300121772646063 -0.13448985980978628
115 -0.12239301449494666 0.8408419469588022 -0.1999360772601722
99 0.39363406949447505 -0.5185895732969998 -0.5629197312738149
118 0.5632374001106532 -1.0568269264849268 -0.8875664983659199
77 0.4247503711208074 0.4188157071162653 0.15211630113488034
35 -0.3434922404555073 1.0750661874065897 -0.08008582168973943
40 0.45085556076858363 -0.45866419363403016 0.9545959127521877
69 0.4428745682060433 0.044427617419687176 -0.4641336444751407
79 -0.17675500213150963 0.6408535805819302 -0.3023543099174951
108 -0.42864011637453653 -0.9657869674319607 0.13426238044446298
226 0.057346791272286125 1.5475590454726533 -0.5120875862099873
235 0.18201381850496218 0.3402604846998429 0.1012796968195351
41 -0.700954125035333 -0.2954792575355897 0.6565070494247703
14 1.0036164945662118 0.575303552840003 0.9152689361619967
131 -0.38639488344570583 -0.022761669743800006 0.12998409099293617
74 -0.2440238416714644 0.49155427918291494 -0.07319032177651173
66 -0.028150575425264477 -0.5552845390364112 -0.07592993324492733
3 0.4531358133097162 -0.14062181753866762 -1.037836840493506
71 0.2639187871180299 -0.7660779028060368 -0.5085951044241024
34 -0.5032825155666909 -0.6718105321920855 -0.023901197959554362
129 0.5902556573612316 0.6136070984526166 0.08859577167623162
45 0.8764465065897336 0.5704506383435467 -0.43280391003763863
53 -1.1024214872618947 0.09628162276024013 -0.10733315828860496
112 0.006507022785111261 0.7183577396829294 0.24249190859978617
17 -0.04826549623462051 0.21857030411619202 0.24702888945934987
132 -1.5417960350771271 0.6955929426763376 0.16001647361011964
84 0.17435336999909032 0.522250263915726 -0.21667516722703867
19 0.33702105895732215 0.7613625647524894 1.6895135899008995
9 -0.2759125336876794 0.04673592358548171 0.2020095044017007
101 -0.016372105725433166 -0.7133583533340092 0.23464657375887202
87 -0.946491299861931 0.10248618892999754 -0.6314370177837967