LAMMPS data file via write_data, version 22 Oct 2020, timestep = 0

2000 atoms
3 atom types
1297 bonds
1 bond types

-25.0 25.0 xlo xhi
-25.0 25.0 ylo yhi
-25.0 25.0 zlo zhi

Masses

1 1
2 1
3 1

PairIJ Coeffs # lj/cut

1 1 1 1 1.122
1 2 1 1 1.122
1 3 1 1 1.122
2 2 1 1 1.122
2 3 1 1 1.122
3 3 1 1 1.122

Bond Coeffs # harmonic

1 2.5 1.122

Atoms # bond

1406 2 3 5.441914809811301 -19.696233131484995 -19.58267471439933 0 0 0
1572 2 3 -2.732979611226366 -19.230099222175056 -19.53400530922042 0 0 0
1718 2 3 -16.658470653741627 -18.436223290515027 -19.566300756072394 0 0 0
1957 2 3 3.933060178985645 -18.807912057052018 -20.109181230856997 0 0 0
1381 2 3 1.2587939552510647 -16.586740194725582 -20.045606024923 0 0 0
1840 2 3 -0.48885623652510546 -14.14399685228423 -20.033944448657316 0 0 0
1129 2 3 -18.54779764870815 -7.454664599606794 -19.89479389258237 0 0 0
1309 2 3 -9.860437614406024 -5.473636716587386 -20.04189981089485 0 0 0
1256 2 3 23.466029169196112 4.153864044677004 -19.889963640904227 0 0 0
1484 2 3 9.145493391581908 5.214158133814816 -19.534629322914352 0 0 0
1147 2 3 20.07725388855031 7.152372076901031 -20.163567127073115 0 0 0
1920 2 3 6.468576849015999 9.36083982721739 -19.9612814386203 0 0 0
1047 2 3 12.671608352061853 10.316755880161331 -19.80478465347318 0 0 0
1317 2 3 13.127625714744049 11.996974533003176 -20.18009563883395 0 0 0
1487 2 3 -3.984974212669009 14.340622913345335 -19.688514158363823 0 0 0
1178 2 3 0.10771531196853701 21.73942285903651 -20.010026619287206 0 0 0
1823 2 3 -6.343972480588825 22.854110239606847 -19.90792567527821 0 0 0
1645 2 3 -10.448329628131019 -17.776500027555105 -19.42396500707494 0 0 0
1975 2 3 -16.51087175339268 -15.89439130272526 -19.078600520097503 0 0 0
1525 2 3 4.379773223987378 -16.455574331911205 -19.02608056368143 0 0 0
1996 2 3 -1.8352555319862276 -15.08491715037394 -19.03374082630129 0 0 0
1694 2 3 21.884114673399033 -15.43187554397974 -19.394051482569 0 0 0
1711 2 3 6.720835058284255 -12.79650254216347 -18.82792104544314 0 0 0
1938 2 3 -13.319761951767529 -5.5626944740837985 -18.96391616556913 0 0 0
1483 2 3 -13.90720556398325 -3.697994733396648 -19.35785585034354 0 0 0
1844 2 3 -1.0305660007769184 -3.6989183687486005 -19.175136403353946 0 0 0
1243 2 3 24.365101802371335 -3.9182869482009295 -19.202240184407483 0 0 0
1502 2 3 19.959521307064 -2.6394317956872513 -19.51206496346935 0 0 0
1886 2 3 -3.1526758488859485 -1.883547822169941 -19.247138208887066 0 0 0
1319 2 3 -1.6175266718825227 -0.5776883344688777 -19.35564476593673 0 0 0
1574 2 3 20.961960149734196 -1.1506891443047564 -19.31862325808285 0 0 0
1421 2 3 -2.537551625442042 2.0761928556885394 -19.234452995987056 0 0 0
1900 2 3 14.191938632463838 5.983821782356543 -19.068859543333016 0 0 0
1431 2 3 -2.6618846485786527 16.52437029805518 -18.886732952398866 0 0 0
1888 2 3 -4.544880119498835 17.752767449531802 -19.529335175975227 0 0 0
1554 2 3 1.9125976200632735 18.76536364480809 -19.175842397864464 0 0 0
1893 2 3 11.289011055304854 24.337896956244073 -18.78437609329894 0 0 0
1518 2 3 22.3006296589613 -19.54853593017723 -18.252332344966455 0 0 0
1679 2 3 23.94702089174904 -15.774730225614787 -18.686589643891693 0 0 0
1310 2 3 -17.03995654937951 -13.270447933069622 -18.68704832775738 0 0 0
1666 2 3 -2.6507724166885076 -12.831023493244082 -18.374185724500574 0 0 0
1496 2 3 -17.107593278677818 -9.689366122206073 -18.38553754486435 0 0 0
1327 2 3 -18.939773288315536 -8.686634219311951 -18.336001229481496 0 0 0
1104 2 3 3.331409931602753 -8.618856425271865 -18.42481569222427 0 0 0
1322 2 3 24.41077488993877 -7.721515238556215 -18.45308788743121 0 0 0
1416 2 3 -12.716159058550144 -2.793638956251666 -18.512255394154845 0 0 0
1348 2 3 18.44513117977005 0.20891895634115443 -18.221316671140734 0 0 0
1365 2 3 0.18593920351876747 2.4251630921590355 -18.10663449997185 0 0 0
1611 2 3 10.683078672355023 2.8737974664131194 -18.15675143673313 0 0 0
1436 2 3 -19.610037601665923 3.7475021053794286 -18.711323366235867 0 0 0
1842 2 3 5.228573562724705 11.62942145027273 -18.34879203187151 0 0 0
1575 2 3 8.757776835420302 11.98413870595035 -18.528459362320483 0 0 0
1784 2 3 15.486838434135706 14.004510516395037 -18.147626905937898 0 0 0
1790 2 3 2.7432739556677674 21.55562438491024 -18.415628910575897 0 0 0
1588 2 3 6.792769346094495 23.903211817905863 -18.353487240594614 0 0 0
1521 2 3 -13.0763404466559 24.612947455684917 -18.216733855751023 0 0 0
1388 2 3 -19.096650725564903 -18.850761301354527 -17.48406795292949 0 0 0
1425 2 3 1.4223616164486685 -17.603190882767876 -17.909865348653305 0 0 0
1486 2 3 16.205144730032984 -13.077109890714976 -17.802821854399696 0 0 0
1137 2 3 8.45322690902782 -12.317199422377872 -17.50109643360294 0 0 0
1113 2 3 23.424804924246168 -11.999323869285726 -17.445649043844867 0 0 0
1276 2 3 -17.672267409603865 -11.305453257722329 -17.4275143304483 0 0 0
1389 2 3 -2.301222981651776 -8.854030526337368 -17.554966272921895 0 0 0
1307 2 3 -3.817457859639905 -8.621603296800448 -17.624352166692155 0 0 0
1002 2 3 -3.8781229369979613 -6.81170988782095 -17.785303411896656 0 0 0
1882 2 3 20.92140455209342 -7.265027888806685 -17.650835939176474 0 0 0
1610 2 3 -1.2948386515846373 -2.2165737415865436 -17.603822595754973 0 0 0
1358 2 3 -19.127017789686807 4.130518028974542 -17.696607990764008 0 0 0
1534 2 3 4.0550209571091145 -16.479311998236888 -17.044907311527666 0 0 0
1698 2 3 -18.221676988903457 -15.110705353837108 -16.922041296028148 0 0 0
1872 2 3 10.611417341675143 -11.943166943093336 -17.133122046823253 0 0 0
1149 2 3 16.92918291047839 -9.068663722233481 -16.52680387333035 0 0 0
1352 2 3 2.5764790686149226 -8.465467911404893 -16.57727620021263 0 0 0
1681 2 3 6.010763664732416 -6.871122650368051 -16.71254865616317 0 0 0
1654 2 3 7.3478176764946 -2.0496062155103516 -17.16851055629241 0 0 0
1027 2 3 -2.8534016121308383 4.411467296638417 -16.851632864898917 0 0 0
1270 2 3 3.134158155869077 6.045892026287156 -17.173581807902536 0 0 0
1715 2 3 23.900357480201208 5.958634620825915 -17.097049063477687 0 0 0
1546 2 3 22.648270409658878 14.007920487448459 -16.529177684144457 0 0 0
1033 2 3 15.903957279130744 14.541356160173834 -17.12308282785923 0 0 0
1192 2 3 -8.25114234456387 18.776733863425434 -16.681440354480696 0 0 0
1407 2 3 5.481013432025545 21.319672860778972 -16.918616814580197 0 0 0
1195 2 3 -13.578160204198413 22.151257434233145 -16.497835859578363 0 0 0
1039 2 3 -0.6849299181091162 24.827370163290176 -17.029232867026924 0 0 0
1405 2 3 -1.9424912820318454 -6.947217220622708 -15.914075028958194 0 0 0
1018 2 3 20.760818827392526 -5.467006326792401 -16.28214047464658 0 0 0
1197 2 3 -18.070543919556446 -1.840775349107961 -15.709130406785992 0 0 0
1090 2 3 17.230701025553238 -0.13268250395794112 -15.817797009244309 0 0 0
1041 2 3 -18.3989144092509 2.884845419017367 -15.841028279374594 0 0 0
1184 2 3 -0.29221289739031775 2.9425774536083225 -16.1923579999528 0 0 0
1972 2 3 17.935196562823442 3.2302312713163843 -15.977292178389632 0 0 0
1094 2 3 -19.042800631867593 18.8937239460832 -15.767834450194062 0 0 0
1731 2 3 15.099115070490797 20.737368713857308 -15.885497087605813 0 0 0
1765 2 3 -10.871912356650249 23.70307097113649 -16.050431793699527 0 0 0
1891 2 3 -9.848422140969673 23.5701570639216 -15.600355263609604 0 0 0
1225 2 3 -19.669142937422798 -17.467145704515644 -14.843988534904813 0 0 0
1780 2 3 21.09213969523593 -12.900744650902984 -15.127388290575862 0 0 0
1511 2 3 -16.910775014402542 -2.9788154409423413 -15.494945584600618 0 0 0
1538 2 3 -5.112358663978007 -2.855017383797936 -15.337196427927214 0 0 0
1250 2 3 -14.26299438432958 -2.68588572551959 -15.03312224068364 0 0 0
1409 2 3 -9.426265245802519 -2.1132504212403305 -15.437077451433868 0 0 0
1098 2 3 -6.256007700071557 2.2087455444800774 -15.129220046195082 0 0 0
1085 2 3 -8.86268278268848 3.7644736216027397 -15.327488408484907 0 0 0
1349 2 3 8.622214308025633 3.6967101121808206 -15.334798349597236 0 0 0
1918 2 3 -4.592935578985198 4.281702248269664 -14.871148534782353 0 0 0
1254 2 3 -12.033743595809831 5.635513250447431 -15.554866769117524 0 0 0
1110 2 3 -17.722720053789637 6.057562530274989 -15.000853667538415 0 0 0
1648 2 3 10.346181977754824 9.372441080151276 -15.578253813061075 0 0 0
1802 2 3 16.655812263386714 9.530910071593013 -14.88955650347529 0 0 0
1454 2 3 19.226814330327443 11.563560494056638 -15.284471144801762 0 0 0
1479 2 3 -7.885028823705753 15.304827165634457 -15.341558027553052 0 0 0
1198 2 3 -17.229803043482278 15.878164992558936 -14.994746918846268 0 0 0
1870 2 3 -14.41660619110814 20.32592074205205 -14.903242557802951 0 0 0
1673 2 3 -10.049772508543755 20.228094298490113 -15.550487426676536 0 0 0
1397 2 3 -13.922987196549311 22.383394622816972 -14.879572259623018 0 0 0
1981 2 3 8.527621417343312 21.923424352882016 -15.335317301411163 0 0 0
1435 2 3 -16.431330857114098 23.838504616100245 -15.56016744815626 0 0 0
1283 2 3 5.106454251031135 24.001555842597334 -15.110038740267886 0 0 0
1915 2 3 5.0012049155787395 -16.980801923797326 -14.834789555925333 0 0 0
1820 2 3 15.227622053588625 -15.33515990897644 -14.778438003943664 0 0 0
1083 2 3 -6.170118903075732 -14.993343313622942 -14.750480661182063 0 0 0
1417 2 3 -2.4397078122249347 -14.125108856964516 -14.594941911666401 0 0 0
1032 2 3 15.92810792329309 -12.74141601086297 -14.254006525905254 0 0 0
1808 2 3 -17.569679210099128 -6.3121007873956 -14.294702866856637 0 0 0
1277 2 3 6.843905059410702 -5.6288934701869735 -14.382345490905475 0 0 0
1578 2 3 -17.295326130273764 -4.66690755218967 -14.826909546384918 0 0 0
1532 2 3 -5.601391842568454 -2.0556453858579573 -14.065932633752602 0 0 0
1439 2 3 20.317927414962313 -0.9872723497891727 -14.747007523998636 0 0 0
1165 2 3 -19.68971940580567 2.912521696457393 -14.80709332484179 0 0 0
1540 2 3 13.37204823310774 3.2381633100848575 -14.616320369624928 0 0 0
1099 2 3 23.474816718177955 6.0244652177498175 -14.318250582434707 0 0 0
1139 2 3 2.207154136773262 23.957006533210816 -14.749265454244092 0 0 0
1144 2 3 -8.12847672487165 -19.89560973064675 -13.304237135913496 0 0 0
1151 2 3 17.91073623927185 -17.018016383970643 -13.608102175809242 0 0 0
1721 2 3 19.139218837751642 -16.541181046023432 -14.011641674088327 0 0 0
1649 2 3 18.006406766025222 -15.933377903355447 -13.32187806322803 0 0 0
1550 2 3 -10.435050526593635 -14.44878516602993 -13.934158653154459 0 0 0
1821 2 3 4.2695768760843436 -9.264992730388379 -13.895426800330103 0 0 0
1710 2 3 -14.369528280679749 -4.59954102343713 -13.309531106302254 0 0 0
1268 2 3 23.531301128433242 -2.725544556876642 -13.74896519835185 0 0 0
1662 2 3 -10.155594358977044 -1.391265034720952 -13.492378010526188 0 0 0
1967 2 3 24.77227271384804 11.095616533523042 -13.99710558332458 0 0 0
1671 2 3 2.05345711530936 12.041456285697471 -13.69956327031307 0 0 0
1814 2 3 23.87945918837128 12.321264334416277 -13.722688792448103 0 0 0
1769 2 3 -8.701444054792137 17.265471012282468 -13.307244939249593 0 0 0
1169 2 3 11.574813184208615 16.86052665783751 -13.823935713403046 0 0 0
1208 2 3 12.333660001872794 22.339028340136544 -13.342638157216678 0 0 0
1350 2 3 -0.958469580166998 -10.423190184244243 -12.616356740074412 0 0 0
1503 2 3 -18.783754473561025 -10.252360731237347 -12.98129654041032 0 0 0
1697 2 3 -10.471909617034363 -9.973484425308827 -12.921424981554864 0 0 0
1627 2 3 -13.744595338058803 -9.43583976330081 -12.596162597810665 0 0 0
1291 2 3 -5.859990983460403 -0.8636944582251118 -12.609652692805561 0 0 0
1676 2 3 12.760575715030285 5.028939616190851 -12.946529906383393 0 0 0
1834 2 3 17.878490532147403 6.603263280056041 -12.801940435654913 0 0 0
1464 2 3 -4.703876123097899 7.59004564806505 -12.598190505798085 0 0 0
1603 2 3 6.365809744332303 12.035697306765975 -12.579148476382628 0 0 0
1282 2 3 14.997397840595127 13.98339745799192 -12.808194125895309 0 0 0
1558 2 3 -2.0269978496735455 16.128840013151752 -12.909023162505445 0 0 0
1285 2 3 5.6582875326819995 18.25135241107352 -12.626612432610576 0 0 0
1371 2 3 2.1268395918681726 19.721982289485908 -12.589970707031299 0 0 0
1601 2 3 1.956445994906371 21.8371681144097 -13.072762807761425 0 0 0
1577 2 3 -16.866677347838205 22.987780589913356 -12.522878233830891 0 0 0
1115 2 3 -6.163866688604578 24.16007542672049 -12.77871684078879 0 0 0
1489 2 3 -3.375109195840942 24.09477688847248 -13.205101713302529 0 0 0
1478 2 3 -12.95438207577988 -19.67179384440339 -12.17686492179102 0 0 0
1064 2 3 -11.617707143280944 -18.125793890125614 -11.79730308757048 0 0 0
1314 2 3 11.14130155253504 -16.911322213779044 -12.259076625103019 0 0 0
1006 2 3 12.235428880929128 -7.712026778024104 -12.012386740687568 0 0 0
1932 2 3 -14.16531713632942 -5.7462038914326214 -12.420235841887129 0 0 0
1289 2 3 -18.464416094220173 -3.1405240625393347 -12.09818883870913 0 0 0
1977 2 3 -3.5539747158527284 -2.0775804182095357 -11.76038685793077 0 0 0
1122 2 3 -17.87343485018192 -0.06769651313945602 -12.42084940287047 0 0 0
1642 2 3 -8.628218610216315 3.9628915781955634 -12.013614500317365 0 0 0
1677 2 3 -7.152877358506508 6.294263441501798 -12.010067841094296 0 0 0
1812 2 3 4.868129312755478 6.0708468972709895 -11.763436439935465 0 0 0
1582 2 3 19.57417086411249 6.64444891279657 -12.427352876103392 0 0 0
1161 2 3 -11.461967294991702 7.560745018765729 -11.736591875919249 0 0 0
1874 2 3 21.364008725058447 11.615813882246258 -11.730581583193855 0 0 0
1175 2 3 -11.256573254401253 13.66335210134882 -11.887383021112415 0 0 0
1193 2 3 17.974433113127425 17.134426629558817 -12.334776020586897 0 0 0
1275 2 3 16.407083598790024 20.936228160120173 -12.148166821203043 0 0 0
1552 2 3 -4.696571168405072 -19.700301895452704 -11.159304830672493 0 0 0
1281 2 3 -7.594398693715803 -15.983583737069438 -11.046941735489403 0 0 0
1770 2 3 -6.301906730356055 -13.822101160505994 -10.993125629334727 0 0 0
1853 2 3 18.132705101793455 -13.975861764672516 -11.014469101191741 0 0 0
1124 2 3 -11.460031823608178 -12.726788787317883 -11.312068452617721 0 0 0
1086 2 3 17.33484227745079 -11.9177182766666 -11.501843257777493 0 0 0
1423 2 3 -3.291790868079552 -4.983298564336941 -11.07954106475408 0 0 0
1070 2 3 -1.313755078723684 -0.7539657050094917 -11.535202971076886 0 0 0
1059 2 3 14.729898479605133 -0.5501920932799038 -11.279015965770181 0 0 0
1304 2 3 -13.6162537753608 1.1544265297951775 -11.630756649868099 0 0 0
1761 2 3 -6.320803814628512 3.2308293989523875 -11.085934890949327 0 0 0
1687 2 3 -11.038612116949892 3.878129288087486 -11.336648492327376 0 0 0
1602 2 3 5.525047047033016 9.574944232610918 -11.695013410870608 0 0 0
1313 2 3 -8.544767478115489 14.830926395151415 -11.029957226146776 0 0 0
1220 2 3 -11.049246865382573 15.437457912902332 -11.475290046016381 0 0 0
1320 2 3 -16.27477868980852 24.646338998714455 -11.374331648115016 0 0 0
1696 2 3 6.593679544650797 24.57422602343628 -11.679245470014834 0 0 0
1361 2 3 -9.495008605925744 -15.078002795096184 -10.257601290257714 0 0 0
1375 2 3 -18.976713263482672 -11.594722397736954 -10.38959424196847 0 0 0
1504 2 3 -15.41230208560902 -7.824568759922023 -10.718390521000915 0 0 0
1748 2 3 -12.348485710188761 -4.37460869227327 -10.409956069053912 0 0 0
1851 2 3 3.978342347582384 -3.975767028471985 -10.738287655449586 0 0 0
1980 2 3 7.815710061275723 -4.039070920123436 -10.290534627686295 0 0 0
1629 2 3 4.954507417459681 2.4406416528024195 -10.906927361915184 0 0 0
1232 2 3 13.200167818531213 1.9699424101305816 -10.92607493681767 0 0 0
1396 2 3 21.77502022639903 2.813315950732907 -10.694537679823306 0 0 0
1916 2 3 6.332951685197507 10.970313896912032 -10.891090259117053 0 0 0
1079 2 3 17.50838810592677 10.562990446593275 -10.60715107832286 0 0 0
1751 2 3 -8.781214746322242 12.542926830518986 -10.5562037338458 0 0 0
1091 2 3 -5.417223061446727 13.284299872192783 -10.834713136438832 0 0 0
1639 2 3 23.4042451026695 13.452125388889485 -10.478959515598364 0 0 0
1565 2 3 12.356081672758215 -17.918852972329482 -9.721842398169546 0 0 0
1294 2 3 -11.135443357832527 -14.262730207055771 -9.54957777310841 0 0 0
1775 2 3 13.321763114835974 -3.620159677670131 -10.029030401686228 0 0 0
1651 2 3 -10.344715771257924 0.3638261839128525 -10.098674514048994 0 0 0
1703 2 3 -2.2977040854476662 -0.37994550330246213 -9.719941428244196 0 0 0
1460 2 3 -17.258555233897805 2.0174042702223893 -9.549683217987516 0 0 0
1943 2 3 15.442924955779716 2.441441969993736 -9.575805731925168 0 0 0
1440 2 3 16.885202874568016 2.9393444445930115 -9.691066696718513 0 0 0
1801 2 3 5.990261256068852 5.720060482412723 -9.89054231184363 0 0 0
1818 2 3 -20.154531126263187 6.999794241285908 -9.849776917166292 0 0 0
1547 2 3 6.890186205689261 8.113761233484817 -9.867951993868589 0 0 0
1442 2 3 20.983008500508305 12.107590448558966 -9.59600563885604 0 0 0
1549 2 3 18.001916090735804 13.095077764561225 -9.447667031219833 0 0 0
1368 2 3 1.781966286523982 16.38249150874573 -9.675439452897281 0 0 0
1010 2 3 1.1972410710495751 19.00113769557675 -9.856794966370265 0 0 0
1323 2 3 4.930250600572801 21.93824870035081 -9.549638005842668 0 0 0
1009 2 3 -4.976962110401544 22.71072593120283 -9.7346109066431 0 0 0
1597 2 3 24.255638116557073 -18.729240646205266 -8.756434582450296 0 0 0
1185 2 3 -4.866334602689623 -15.746509559104357 -8.67203036472074 0 0 0
1251 2 3 15.009072677141923 -9.777792017256486 -9.358104773670124 0 0 0
1362 2 3 -7.210297310642169 -1.7859918283604337 -8.74017316821363 0 0 0
1591 2 3 16.42889949557656 0.6064417341294401 -8.75338710857288 0 0 0
1305 2 3 6.527369383894985 2.857690354089499 -8.663833696717305 0 0 0
1114 2 3 8.385925858698258 3.3472780863862575 -8.635919911461976 0 0 0
1678 2 3 18.39686434338722 5.677962198968267 -8.879549412622936 0 0 0
1621 2 3 7.083326875455679 7.264596532265369 -9.157362450031727 0 0 0
1922 2 3 -17.582631644095787 8.562989270708997 -8.8942154697564 0 0 0
1576 2 3 -14.148674145018523 10.033525737194836 -8.965635153167767 0 0 0
1372 2 3 -9.333609453831171 9.6595848630824 -8.772300886648054 0 0 0
1560 2 3 24.678524908269765 11.32356052610821 -8.799410738008831 0 0 0
1524 2 3 20.645902809743774 17.50445700616487 -9.289832990498898 0 0 0
1211 2 3 4.427217832173017 19.732605532986653 -9.213866031926361 0 0 0
1103 2 3 18.924779768280466 24.29184867108463 -8.641429896432928 0 0 0
1298 2 3 -5.754757707028581 -19.537067219930282 -8.43683333260477 0 0 0
1702 2 3 22.063320825975673 -16.64838064720893 -8.121759747766948 0 0 0
1493 2 3 1.0682146885306913 -8.26966562766303 -8.203418464090685 0 0 0
1939 2 3 20.385487142532938 -5.721612356791201 -8.508428060992237 0 0 0
1060 2 3 -15.908161185627083 -4.515662726978597 -7.921466540835212 0 0 0
1112 2 3 -18.589169535954607 -3.758976750189504 -8.071257228410573 0 0 0
1551 2 3 -11.34845241536189 0.7837852588941168 -8.099853338650647 0 0 0
1269 2 3 -8.66806521997934 2.1229472949187134 -8.053356920639754 0 0 0
1071 2 3 17.59221654295621 3.254265412447573 -7.874721120579846 0 0 0
1213 2 3 8.62069087684717 4.666463283114936 -7.998930086154768 0 0 0
1447 2 3 5.214183470096394 6.76189544454067 -8.075636738967695 0 0 0
1958 2 3 -8.3373235690534 9.427581180237269 -8.078708261145412 0 0 0
1815 2 3 6.558778946844683 9.204298362046842 -8.111179546799121 0 0 0
1204 2 3 -12.947106038123156 12.552732470420395 -8.226255694040844 0 0 0
1674 2 3 9.222113692097842 14.901012579670741 -8.347844768901759 0 0 0
1076 2 3 -4.946078519166555 15.762760706470168 -7.819723601127489 0 0 0
1764 2 3 -19.429400790326753 19.096043862954772 -8.376595572214903 0 0 0
1829 2 3 -6.857853846598751 -19.83063027180536 -7.373760635919744 0 0 0
1605 2 3 -10.303285630725798 -18.486361573288995 -7.6478194180027295 0 0 0
1170 2 3 -1.0141085730301391 -14.624358557020606 -7.717483262160741 0 0 0
1945 2 3 -9.405770580253893 -9.4767159012535 -7.692053272671565 0 0 0
1912 2 3 3.933409434969594 -6.0187336585601585 -7.246550419377613 0 0 0
1045 2 3 22.466119308488096 1.634497727716326 -7.3578033144870645 0 0 0
1923 2 3 7.007585672882243 2.057797448258583 -7.653971765599913 0 0 0
1247 2 3 -15.718465840217766 2.9645587073641546 -7.082752124364155 0 0 0
1691 2 3 -14.634648977336642 3.122752548102039 -7.343632885217123 0 0 0
1446 2 3 16.05492404845519 2.745869202224121 -7.349277076098282 0 0 0
1345 2 3 -13.608924849346291 7.099359296104723 -7.325795662858923 0 0 0
1944 2 3 9.610131104379107 9.04220271273526 -7.692559981133144 0 0 0
1909 2 3 11.277790857181202 10.272415061315527 -7.400503484780344 0 0 0
1995 2 3 -13.68592233623007 10.526786483631113 -7.461593271292479 0 0 0
1321 2 3 8.31589159821776 10.8497848857888 -7.100038549577 0 0 0
1839 2 3 -16.040742722483113 11.359275790468331 -7.1754172982049695 0 0 0
1914 2 3 6.641680181610116 15.115813808547507 -7.086758102479521 0 0 0
1412 2 3 14.782843034699745 15.115077619188092 -7.652899178012213 0 0 0
1155 2 3 1.3091119209740611 17.96725121653727 -7.461956935551498 0 0 0
1785 2 3 -17.356975315880014 18.606563538599637 -7.29914351003335 0 0 0
1043 2 3 -12.587681135535576 19.440272278150616 -7.275902072843259 0 0 0
1757 2 3 -3.3662092362347282 22.58055826072248 -7.171967046580947 0 0 0
1234 2 3 -3.5297176989906505 23.551412257043253 -7.738365999263879 0 0 0
1398 2 3 -13.430467576059375 24.270008552623487 -7.1013487460714195 0 0 0
1999 2 3 -1.272281565220986 -15.597969840656035 -6.936226147454292 0 0 0
1106 2 3 21.375450868453925 -14.358747246134502 -6.904807827752087 0 0 0
1177 2 3 18.023129633256033 -13.474822799962848 -6.779011726623118 0 0 0
1833 2 3 6.226148859858494 -6.606116375793189 -6.90303046390968 0 0 0
1884 2 3 0.8940513944211936 -6.017751515782706 -6.848817087159823 0 0 0
874 1 1 -1.402610360462261 -2.9519821796860697 -6.586293211484417 0 0 0
718 1 1 3.012445774323103 -3.277993644873248 -6.7578110859760026 0 0 0
1260 2 3 20.994163230914772 -2.8757395079425017 -6.291318089083781 0 0 0
752 1 1 2.6372427055630214 -2.282575953083288 -7.114732319790369 0 0 0
622 1 1 3.8900449840504585 -2.522391531325695 -6.602852326571297 0 0 0
465 1 1 1.9994142809455178 -0.43370447554627034 -7.2883959218726115 0 0 0
534 1 1 3.06727879372956 -0.41159054301684783 -6.944616786556764 0 0 0
1752 2 3 -11.751043118728417 -0.06932567667217526 -6.431522655080556 0 0 0
1218 2 3 7.808007276101037 -0.13710112239128946 -6.5960736185869 0 0 0
898 1 1 -0.914314846125886 0.8635135105539657 -6.824187398592908 0 0 0
975 1 1 -0.25838529622065526 -0.019515063622897975 -6.582257137824037 0 0 0
43 1 2 0.027316853986069603 1.007158302989932 -6.23090717046703 0 0 0
1963 2 3 -10.280334843312703 1.8035695565824312 -6.521223088171929 0 0 0
565 1 1 -0.6708159239889602 1.8715723534141164 -6.386978626319887 0 0 0
1042 2 3 -15.521255446419218 5.111306499991102 -6.542828373196315 0 0 0
1058 2 3 -19.309587366344534 6.875714877606235 -6.665794435061713 0 0 0
1931 2 3 -18.025761894031262 11.687662806183837 -6.942670139293163 0 0 0
1936 2 3 20.101274566635666 13.696406456855485 -6.712461069350418 0 0 0
1303 2 3 -8.084127395538736 14.854347944977107 -6.836717161563989 0 0 0
1794 2 3 17.86448786565679 14.952364936355089 -6.8795431861389815 0 0 0
1386 2 3 -3.3174841819457064 21.478649329338587 -6.8957672678047155 0 0 0
1614 2 3 -12.251017303308895 24.103101984224402 -6.879298910887847 0 0 0
1988 2 3 9.222639394592733 23.828651439292422 -6.785866144049457 0 0 0
1942 2 3 19.094901135717897 23.50372043709006 -6.781138984207619 0 0 0
1084 2 3 10.176256685763391 -20.111953199672087 -6.2314817009027905 0 0 0
1373 2 3 15.633602544533545 -14.284708446343885 -5.86443804310376 0 0 0
1989 2 3 4.608808664242556 -12.460922289497873 -5.986813283270507 0 0 0
1337 2 3 -11.137273733718096 -10.783045327992957 -5.920856352686215 0 0 0
1109 2 3 19.786603806534124 -10.14353519419069 -5.648876489918795 0 0 0
1953 2 3 -14.978224555637732 -8.288489060950958 -6.19898416769982 0 0 0
1894 2 3 -7.263401441594269 -8.287370787249511 -5.593221705083671 0 0 0
500 1 1 2.1682382885687055 -3.9475637338815637 -6.444885122294633 0 0 0
689 1 1 -3.8453686685123807 -3.120300695743223 -5.905600333437062 0 0 0
564 1 1 -2.4949159453993284 -2.9255782764102567 -6.3303996844296755 0 0 0
166 1 2 1.9068208490759546 -2.8599887137079927 -6.356239835650947 0 0 0
656 1 1 -4.772251750261917 -2.4338690535232486 -6.195338235481612 0 0 0
41 1 2 -1.0795941867094438 -2.213001545451613 -5.806033895188025 0 0 0
813 1 1 1.268291230409379 -1.9823236358111922 -6.64168678380339 0 0 0
731 1 1 -2.9078262381891524 -1.9090909206198647 -5.911109733912045 0 0 0
979 1 1 -0.8138238118919867 -1.1300257889088858 -5.6798928152267605 0 0 0
438 1 1 2.1804798390529223 -1.3260574456564163 -6.632162161396747 0 0 0
296 1 2 3.252364675197491 -1.6101541772018853 -6.460182523241905 0 0 0
970 1 1 3.240935743052883 -2.479722239097099 -5.688521199584789 0 0 0
100 1 2 1.1424248512313215 -0.8693103906897932 -6.7095800051637395 0 0 0
302 1 1 2.238889634898504 -0.29359352472159234 -6.196770900695401 0 0 0
244 1 2 3.307786106332739 -0.29112569578968794 -5.855042358032766 0 0 0
1701 2 3 -16.0802985602402 -0.014869241823724622 -5.621795659088299 0 0 0
103 1 2 -1.297822615185937 0.04144030248650408 -6.163812834025217 0 0 0
377 1 1 0.7574704045234492 1.3551447056544215 -5.452745790025794 0 0 0
237 1 2 -0.9908225478306071 2.2427349224278252 -5.37757972812278 0 0 0
435 1 1 0.03021584244219003 2.521596072854872 -5.750202456580096 0 0 0
353 1 1 1.4133476585421765 2.239395781667765 -5.735917239241982 0 0 0
806 1 1 0.7533543674293153 3.374651976681835 -5.841493336226009 0 0 0
1428 2 3 8.962345792182155 2.1102689089170603 -6.2266207368921584 0 0 0
371 1 1 -2.864840677005595 3.160419085382728 -6.034748032809746 0 0 0
497 1 1 -1.789895409106102 2.88480938084092 -6.201408150534327 0 0 0
678 1 1 -0.8128117744662025 3.2658215117201563 -5.802454869690277 0 0 0
1258 2 3 22.01058363809058 2.9527519466443017 -6.029621067998917 0 0 0
925 1 1 -3.478261773333314 4.052831514303587 -5.722514265835529 0 0 0
1437 2 3 20.250865531980686 5.395264601801308 -5.480283943476426 0 0 0
1800 2 3 11.623157039462825 13.204845109342116 -5.638944991795874 0 0 0
1559 2 3 -2.70499799436611 17.450200836156462 -5.826499722283341 0 0 0
1581 2 3 -9.816352147955218 18.647799167048177 -5.485540407425269 0 0 0
1392 2 3 -3.834094321557433 21.33242639823126 -5.902515163113011 0 0 0
1253 2 3 -6.864075569507335 22.772747617810253 -5.933548691645932 0 0 0
1357 2 3 -19.16872552435948 23.960567958609403 -5.815107639178159 0 0 0
1231 2 3 -0.4620813278911591 24.117487834375197 -5.812340586839621 0 0 0
1871 2 3 -9.986504156537887 24.666641305373396 -5.808018747124432 0 0 0
1131 2 3 20.99395738206767 -17.8904229937529 -4.975741522306329 0 0 0
1969 2 3 22.973702509979404 -16.920178149418987 -4.899528784053423 0 0 0
1152 2 3 -4.147811953715632 -14.60100416025423 -5.07665752876121 0 0 0
1494 2 3 2.36463573542353 -12.919471058201005 -4.969838333885974 0 0 0
1978 2 3 14.587091397704725 -11.581617359717065 -5.390806939625374 0 0 0
1005 2 3 -12.201243416364726 -9.635474408703468 -4.761806038872322 0 0 0
805 1 1 -3.3414918220620806 -4.48716730495681 -4.568728280423393 0 0 0
1082 2 3 6.027837337101567 -4.507812037584545 -5.269489950364368 0 0 0
1705 2 3 -14.005776574650977 -2.780533255159174 -4.893170816867919 0 0 0
92 1 2 -4.4867806821742615 -2.6040444615641434 -5.123604402469133 0 0 0
274 1 2 -4.904733729781042 -3.449253817773652 -5.736558076549417 0 0 0
533 1 1 -4.155546281426003 -3.6606328109299175 -4.928280499637154 0 0 0
112 1 2 -2.938241714998169 -2.851151027605878 -5.302194055270429 0 0 0
762 1 1 -0.8386326985312087 -2.844899345823324 -4.910518227591444 0 0 0
973 1 1 0.58176925132089 -3.228913786304057 -4.690257605656761 0 0 0
610 1 1 1.4193849243340206 -3.2806882537783784 -5.43711589367516 0 0 0
791 1 1 2.5370348689354945 -3.3478369802410763 -5.566197385729295 0 0 0
996 1 1 3.8951930711860885 -3.3734997547279666 -5.507308737467646 0 0 0
1583 2 3 9.98250824909195 -2.70173224064758 -5.320184980827399 0 0 0
982 1 1 -5.568348614909493 -2.600822464843 -5.422149026903148 0 0 0
215 1 2 0.825085884124659 -2.33565952186517 -5.324336098763529 0 0 0
116 1 2 3.9062627904731118 -2.514430752590435 -4.785567258678947 0 0 0
574 1 1 -4.909084679452776 -1.4960852555349928 -5.1131042794979 0 0 0
634 1 1 -3.9678747842014195 -1.073260100065486 -5.5543667842465325 0 0 0
916 1 1 -3.621070405584767 -1.875310517935327 -4.842588404278488 0 0 0
659 1 1 -1.8913118423866448 -1.4438046218510538 -5.711768561741394 0 0 0
1749 2 3 -0.2109134872006795 -1.9350644757617839 -5.1491534265950865 0 0 0
406 1 1 0.8447336375301355 -1.3035070183360558 -4.884661747344546 0 0 0
662 1 1 0.5473240242538445 -1.4518326373231454 -5.957485310353972 0 0 0
403 1 1 2.6494241369230873 -1.1711284340035861 -5.62173062417801 0 0 0
571 1 1 6.321986771300731 -1.3249279949455217 -5.387258370268697 0 0 0
258 1 2 -3.1287142057907684 -0.8671053689199599 -4.838553416816192 0 0 0
342 1 1 -1.5864133360440484 -0.4681358057584287 -5.2066451902986834 0 0 0
755 1 1 0.5829954976786899 -0.3299055298917914 -5.900204421628009 0 0 0
154 1 2 1.537277839542286 -0.5562335082804816 -5.355005953767973 0 0 0
401 1 1 3.3727953429236663 -0.7885147697166617 -4.851335011479976 0 0 0
814 1 1 4.3639930331738235 -0.5549206589030445 -5.58235823818641 0 0 0
10 1 2 5.913893223535683 -1.090638865714542 -4.368617057933093 0 0 0
70 1 2 5.183385566461713 -1.2338610645065518 -5.226001724522619 0 0 0
325 1 1 7.225326428307225 -0.7698717895049559 -5.75495129598503 0 0 0
1403 2 3 12.354481661354008 -0.4245713671260418 -4.795957928205954 0 0 0
526 1 1 -3.3758270565618353 -0.0576038689519308 -5.575420175093806 0 0 0
729 1 1 2.3327312242312477 0.14457574912874072 -4.986283946287851 0 0 0
1312 2 3 -17.2184586985285 0.4877420443186402 -4.952369467054513 0 0 0
155 1 2 -3.6008813099044037 0.9839126083118342 -5.223167641312134 0 0 0
800 1 1 -1.1320669624162967 0.6693295774864818 -5.248694254435865 0 0 0
350 1 1 -3.3827301497513824 2.060304328647212 -5.453306197227091 0 0 0
888 1 1 -1.903530221452811 1.602318527520484 -5.2510751422043045 0 0 0
117 1 2 0.9306357267394749 2.801577433525041 -4.893243368741224 0 0 0
173 1 2 1.4434135847478844 1.8199833053177104 -4.695657159604957 0 0 0
141 1 2 -3.2236250986910213 3.375889654242459 -4.864423362983581 0 0 0