ITEM: TIMESTEP
0
ITEM: NUMBER OF ATOMS
2000
ITEM: BOX BOUNDS pp pp pp
-2.5000000000000000e+01 2.5000000000000000e+01
-2.5000000000000000e+01 2.5000000000000000e+01
-2.5000000000000000e+01 2.5000000000000000e+01
ITEM: ATOMS id type mol x y z vx vy vz fx fy fz
1406 3 2 5.44191 -19.6962 -19.5827 0 0 0 12.974 0.861074 13.5512
1572 3 2 -2.73298 -19.2301 -19.534 0 0 0 3.77912 -12.3798 11.4005
1718 3 2 -16.6585 -18.4362 -19.5663 0 0 0 6.62379 11.3387 -14.8453
1957 3 2 3.93306 -18.8079 -20.1092 0 0 0 -8.58159 0.858079 -2.6279
1381 3 2 1.25879 -16.5867 -20.0456 0 0 0 -9.92982 -9.63788 9.22471
1840 3 2 -0.488856 -14.144 -20.0339 0 0 0 13.6925 4.66795 13.4943
1129 3 2 -18.5478 -7.45466 -19.8948 0 0 0 -4.30753 11.6989 2.62188
1309 3 2 -9.86044 -5.47364 -20.0419 0 0 0 -13.4422 -7.61222 -10.035
1256 3 2 23.466 4.15386 -19.89 0 0 0 -10.2235 1.74862 -10.1256
1484 3 2 9.14549 5.21416 -19.5346 0 0 0 9.50266 12.4659 -10.3137
1147 3 2 20.0773 7.15237 -20.1636 0 0 0 13.3552 -4.26641 -3.93501
1920 3 2 6.46858 9.36084 -19.9613 0 0 0 15.6857 7.61726 8.90698
1047 3 2 12.6716 10.3168 -19.8048 0 0 0 9.61257 6.78582 -0.679005
1317 3 2 13.1276 11.997 -20.1801 0 0 0 12.225 7.30645 -9.23314
1487 3 2 -3.98497 14.3406 -19.6885 0 0 0 13.4799 -11.6587 -10.8152
1178 3 2 0.107715 21.7394 -20.01 0 0 0 3.84757 -7.03156 -10.3537
1823 3 2 -6.34397 22.8541 -19.9079 0 0 0 -11.8198 -9.81789 -0.759898
1645 3 2 -10.4483 -17.7765 -19.424 0 0 0 -0.7174 2.42781 15.7089
1975 3 2 -16.5109 -15.8944 -19.0786 0 0 0 1.16286 5.74074 1.83502
1525 3 2 4.37977 -16.4556 -19.0261 0 0 0 6.07042 -0.518434 -11.4539
1996 3 2 -1.83526 -15.0849 -19.0337 0 0 0 3.13629 -4.34427 14.5565
1694 3 2 21.8841 -15.4319 -19.3941 0 0 0 3.08138 9.88814 -0.00456703
1711 3 2 6.72084 -12.7965 -18.8279 0 0 0 15.1558 11.7915 6.62821
1938 3 2 -13.3198 -5.56269 -18.9639 0 0 0 -10.8549 -11.1686 -13.668
1483 3 2 -13.9072 -3.69799 -19.3579 0 0 0 11.1713 8.60367 2.04067
1844 3 2 -1.03057 -3.69892 -19.1751 0 0 0 0.561665 -12.7758 -10.6261
1243 3 2 24.3651 -3.91829 -19.2022 0 0 0 -1.6524 -12.2375 -10.9957
1502 3 2 19.9595 -2.63943 -19.5121 0 0 0 15.0832 8.87421 -2.78177
1886 3 2 -3.15268 -1.88355 -19.2471 0 0 0 -5.29303 -12.1575 15.3032
1319 3 2 -1.61753 -0.577688 -19.3556 0 0 0 -3.4388 -8.1859 1.61974
1574 3 2 20.962 -1.15069 -19.3186 0 0 0 13.3511 3.20412 7.65526
1421 3 2 -2.53755 2.07619 -19.2345 0 0 0 13.8912 14.7429 -3.60052
1900 3 2 14.1919 5.98382 -19.0689 0 0 0 -12.1335 -1.83454 10.3726
1431 3 2 -2.66188 16.5244 -18.8867 0 0 0 -9.29304 -1.27346 2.1582
1888 3 2 -4.54488 17.7528 -19.5293 0 0 0 -5.39657 4.56783 -5.41329
1554 3 2 1.9126 18.7654 -19.1758 0 0 0 -10.3865 12.8722 11.6795
1893 3 2 11.289 24.3379 -18.7844 0 0 0 -7.52289 12.94 -6.11319
1518 3 2 22.3006 -19.5485 -18.2523 0 0 0 -13.4197 -15.5622 -11.4012
1679 3 2 23.947 -15.7747 -18.6866 0 0 0 -14.2263 -11.3919 -0.924914
1310 3 2 -17.04 -13.2704 -18.687 0 0 0 6.9367 12.1645 4.96112
1666 3 2 -2.65077 -12.831 -18.3742 0 0 0 4.08494 -8.55187 8.04193
1496 3 2 -17.1076 -9.68937 -18.3855 0 0 0 -1.13634 11.4435 -7.23977
1327 3 2 -18.9398 -8.68663 -18.336 0 0 0 9.79475 15.4166 -1.05703
1104 3 2 3.33141 -8.61886 -18.4248 0 0 0 -9.38803 14.361 8.51284
1322 3 2 24.4108 -7.72152 -18.4531 0 0 0 12.2728 -12.2366 -4.06768
1416 3 2 -12.7162 -2.79364 -18.5123 0 0 0 10.4496 -3.8062 15.6837
1348 3 2 18.4451 0.208919 -18.2213 0 0 0 -13.0781 0.803629 -8.71485
1365 3 2 0.185939 2.42516 -18.1066 0 0 0 -5.86439 2.76278 -6.25854
1611 3 2 10.6831 2.8738 -18.1568 0 0 0 12.1532 -4.36577 7.90249
1436 3 2 -19.61 3.7475 -18.7113 0 0 0 2.59014 14.2256 -10.2916
1842 3 2 5.22857 11.6294 -18.3488 0 0 0 9.55522 4.20875 -1.20542
1575 3 2 8.75778 11.9841 -18.5285 0 0 0 10.1924 9.8692 1.11389
1784 3 2 15.4868 14.0045 -18.1476 0 0 0 13.7841 -1.40103 -7.39372
1790 3 2 2.74327 21.5556 -18.4156 0 0 0 8.89985 6.23029 12.3152
1588 3 2 6.79277 23.9032 -18.3535 0 0 0 -6.44187 -0.603234 -15.3148
1521 3 2 -13.0763 24.6129 -18.2167 0 0 0 -9.8106 11.6431 -14.035
1388 3 2 -19.0967 -18.8508 -17.4841 0 0 0 14.9984 5.27533 -2.35486
1425 3 2 1.42236 -17.6032 -17.9099 0 0 0 2.64856 1.71519 12.3235
1486 3 2 16.2051 -13.0771 -17.8028 0 0 0 -5.57259 9.20128 -9.55794
1137 3 2 8.45323 -12.3172 -17.5011 0 0 0 -12.3004 13.1019 9.05207
1113 3 2 23.4248 -11.9993 -17.4456 0 0 0 -14.487 -14.2063 -13.7491
1276 3 2 -17.6723 -11.3055 -17.4275 0 0 0 8.29219 9.32402 -7.20432
1389 3 2 -2.30122 -8.85403 -17.555 0 0 0 5.63087 0.490019 13.5257
1307 3 2 -3.81746 -8.6216 -17.6244 0 0 0 -11.8887 -7.66309 13.6087
1002 3 2 -3.87812 -6.81171 -17.7853 0 0 0 -6.60101 1.96289 -11.0185
1882 3 2 20.9214 -7.26503 -17.6508 0 0 0 2.75035 -8.32657 -2.79088
1610 3 2 -1.29484 -2.21657 -17.6038 0 0 0 9.56399 -5.01712 13.43
1358 3 2 -19.127 4.13052 -17.6966 0 0 0 -11.1572 8.02005 -9.90924
1534 3 2 4.05502 -16.4793 -17.0449 0 0 0 -1.67807 -5.51971 -12.8605
1698 3 2 -18.2217 -15.1107 -16.922 0 0 0 0.409709 -7.24331 -7.82202
1872 3 2 10.6114 -11.9432 -17.1331 0 0 0 13.5088 -0.291266 -10.6024
1149 3 2 16.9292 -9.06866 -16.5268 0 0 0 6.20821 -3.40628 15.7916
1352 3 2 2.57648 -8.46547 -16.5773 0 0 0 0.974371 13.4937 0.189832
1681 3 2 6.01076 -6.87112 -16.7125 0 0 0 -13.247 -2.85703 11.1145
1654 3 2 7.34782 -2.04961 -17.1685 0 0 0 0.650252 -3.73632 -4.95886
1027 3 2 -2.8534 4.41147 -16.8516 0 0 0 13.2046 10.737 -1.35073
1270 3 2 3.13416 6.04589 -17.1736 0 0 0 -6.54042 -8.89897 7.10606
1715 3 2 23.9004 5.95863 -17.097 0 0 0 -14.2753 -2.37228 10.9749
1546 3 2 22.6483 14.0079 -16.5292 0 0 0 6.23388 4.34491 -12.6623
1033 3 2 15.904 14.5414 -17.1231 0 0 0 15.6382 5.1349 3.90749
1192 3 2 -8.25114 18.7767 -16.6814 0 0 0 -3.95672 4.91257 3.39972
1407 3 2 5.48101 21.3197 -16.9186 0 0 0 8.76452 0.0568174 4.80795
1195 3 2 -13.5782 22.1513 -16.4978 0 0 0 9.5303 -9.82657 11.6792
1039 3 2 -0.68493 24.8274 -17.0292 0 0 0 3.88687 -14.4301 12.978
1405 3 2 -1.94249 -6.94722 -15.9141 0 0 0 0.464054 -14.4511 2.44236
1018 3 2 20.7608 -5.46701 -16.2821 0 0 0 -10.2815 -6.79677 6.18358
1197 3 2 -18.0705 -1.84078 -15.7091 0 0 0 8.53248 6.67026 7.40122
1090 3 2 17.2307 -0.132683 -15.8178 0 0 0 12.3068 2.97404 -8.77272
1041 3 2 -18.3989 2.88485 -15.841 0 0 0 1.35786 1.29287 -7.35004
1184 3 2 -0.292213 2.94258 -16.1924 0 0 0 4.18817 -6.11485 -7.23647
1972 3 2 17.9352 3.23023 -15.9773 0 0 0 -10.5013 -3.4667 -4.66083
1094 3 2 -19.0428 18.8937 -15.7678 0 0 0 -1.12848 1.68711 11.4069
1731 3 2 15.0991 20.7374 -15.8855 0 0 0 -15.2032 -15.6072 -5.65027
1765 3 2 -10.8719 23.7031 -16.0504 0 0 0 4.51199 -2.9081 -8.95468
1225 3 2 -19.6691 -17.4671 -14.844 0 0 0 -3.26332 10.6934 -7.42813
1780 3 2 21.0921 -12.9007 -15.1274 0 0 0 0.926034 4.85414 6.61366
1511 3 2 -16.9108 -2.97882 -15.4949 0 0 0 -8.20894 14.1468 -7.46504
1538 3 2 -5.11236 -2.85502 -15.3372 0 0 0 -8.36798 -9.93233 -7.31285
1250 3 2 -14.263 -2.68589 -15.0331 0 0 0 7.74466 12.2368 -7.79294
1409 3 2 -9.42627 -2.11325 -15.4371 0 0 0 14.951 4.85609 15.4809
1098 3 2 -6.25601 2.20875 -15.1292 0 0 0 0.440711 1.77949 13.4868
1085 3 2 -8.86268 3.76447 -15.3275 0 0 0 -7.78464 12.8784 -10.7759
1349 3 2 8.62221 3.69671 -15.3348 0 0 0 -0.459594 0.860213 -8.23225
1918 3 2 -4.59294 4.2817 -14.8711 0 0 0 -9.12873 -9.10955 -14.2536
1254 3 2 -12.0337 5.63551 -15.5549 0 0 0 9.20941 -15.3832 -14.0127
1110 3 2 -17.7227 6.05756 -15.0009 0 0 0 13.0422 0.0760505 11.3921
1648 3 2 10.3462 9.37244 -15.5783 0 0 0 -0.185925 -0.150923 8.13034
1802 3 2 16.6558 9.53091 -14.8896 0 0 0 4.53499 14.77 -14.9039
1454 3 2 19.2268 11.5636 -15.2845 0 0 0 -11.6613 -0.859295 8.59002
1479 3 2 -7.88503 15.3048 -15.3416 0 0 0 -7.65786 12.5188 -4.36666
1198 3 2 -17.2298 15.8782 -14.9947 0 0 0 0.664011 -11.1776 -9.26397
1870 3 2 -14.4166 20.3259 -14.9032 0 0 0 3.19636 12.9627 5.17936
1673 3 2 -10.0498 20.2281 -15.5505 0 0 0 8.028 -6.07192 9.25626
1397 3 2 -13.923 22.3834 -14.8796 0 0 0 11.8545 -1.29594 13.5162
1981 3 2 8.52762 21.9234 -15.3353 0 0 0 1.96837 -10.5239 -10.3093
1435 3 2 -16.4313 23.8385 -15.5602 0 0 0 2.1608 1.76561 -3.49449
1891 3 2 -9.84842 23.5702 -15.6004 0 0 0 11.286 -5.45711 14.3618
1283 3 2 5.10645 24.0016 -15.11 0 0 0 -5.98489 -4.31638 5.31442
1915 3 2 5.0012 -16.9808 -14.8348 0 0 0 4.69471 11.2359 -9.77058
1820 3 2 15.2276 -15.3352 -14.7784 0 0 0 2.14518 10.6761 6.32138
1083 3 2 -6.17012 -14.9933 -14.7505 0 0 0 -6.3729 -1.9916 -2.36657
1417 3 2 -2.43971 -14.1251 -14.5949 0 0 0 -1.6128 4.5716 6.78231
1032 3 2 15.9281 -12.7414 -14.254 0 0 0 7.62773 9.024 6.64644
1808 3 2 -17.5697 -6.3121 -14.2947 0 0 0 -14.5917 -14.1549 -12.2401
1277 3 2 6.84391 -5.62889 -14.3823 0 0 0 9.30877 10.2765 9.48775
1578 3 2 -17.2953 -4.66691 -14.8269 0 0 0 13.797 -12.3666 -5.57391
1532 3 2 -5.60139 -2.05565 -14.0659 0 0 0 -9.66327 10.8506 12.8721
1439 3 2 20.3179 -0.987272 -14.747 0 0 0 -5.60265 2.29924 0.835837
1165 3 2 -19.6897 2.91252 -14.8071 0 0 0 5.7466 3.68284 -0.787634
1540 3 2 13.372 3.23816 -14.6163 0 0 0 -7.35242 -0.369232 1.87753
1099 3 2 23.4748 6.02447 -14.3183 0 0 0 7.00861 -3.66018 -12.0087
1139 3 2 2.20715 23.957 -14.7493 0 0 0 -4.91687 -3.7497 0.957775
1144 3 2 -8.12848 -19.8956 -13.3042 0 0 0 -6.36665 -13.1638 0.391582
1151 3 2 17.9107 -17.018 -13.6081 0 0 0 -5.94192 -14.1823 -8.33709
1721 3 2 19.1392 -16.5412 -14.0116 0 0 0 3.67415 -3.64182 10.1906
1649 3 2 18.0064 -15.9334 -13.3219 0 0 0 -6.02343 6.53973 -9.84776
1550 3 2 -10.4351 -14.4488 -13.9342 0 0 0 -4.87374 -4.06524 10.5996
1821 3 2 4.26958 -9.26499 -13.8954 0 0 0 -1.13597 -11.7904 -12.3506
1710 3 2 -14.3695 -4.59954 -13.3095 0 0 0 0.244716 -4.80786 11.1179
1268 3 2 23.5313 -2.72554 -13.749 0 0 0 -2.707 10.1888 7.69883
1662 3 2 -10.1556 -1.39127 -13.4924 0 0 0 -0.982904 9.70382 1.06367
1967 3 2 24.7723 11.0956 -13.9971 0 0 0 -11.8135 -2.96525 8.36453
1671 3 2 2.05346 12.0415 -13.6996 0 0 0 -1.18541 -14.5173 14.9837
1814 3 2 23.8795 12.3213 -13.7227 0 0 0 7.02636 9.08847 -11.8961
1769 3 2 -8.70144 17.2655 -13.3072 0 0 0 1.08148 -5.02493 -10.5427
1169 3 2 11.5748 16.8605 -13.8239 0 0 0 7.20161 -0.0796129 -12.6351
1208 3 2 12.3337 22.339 -13.3426 0 0 0 1.19563 -8.48797 9.83463
1350 3 2 -0.95847 -10.4232 -12.6164 0 0 0 -12.1203 13.9687 13.3361
1503 3 2 -18.7838 -10.2524 -12.9813 0 0 0 2.61612 10.8556 9.1001
1697 3 2 -10.4719 -9.97348 -12.9214 0 0 0 -0.871806 -1.73852 -1.56841
1627 3 2 -13.7446 -9.43584 -12.5962 0 0 0 4.69189 5.60378 -2.56048
1291 3 2 -5.85999 -0.863694 -12.6097 0 0 0 -0.457911 15.1985 15.1741
1676 3 2 12.7606 5.02894 -12.9465 0 0 0 6.50118 -0.614002 6.86488
1834 3 2 17.8785 6.60326 -12.8019 0 0 0 -1.15557 -4.2653 -13.1546
1464 3 2 -4.70388 7.59005 -12.5982 0 0 0 11.4408 -6.97126 -1.78586
1603 3 2 6.36581 12.0357 -12.5791 0 0 0 -2.71363 -3.41804 -14.6589
1282 3 2 14.9974 13.9834 -12.8082 0 0 0 15.5618 -4.42631 -8.09855
1558 3 2 -2.027 16.1288 -12.909 0 0 0 -8.29064 -11.4932 -9.92932
1285 3 2 5.65829 18.2514 -12.6266 0 0 0 1.62291 -14.1281 -10.177
1371 3 2 2.12684 19.722 -12.59 0 0 0 -14.631 4.70492 -2.83307
1601 3 2 1.95645 21.8372 -13.0728 0 0 0 -11.52 8.68485 -10.7444
1577 3 2 -16.8667 22.9878 -12.5229 0 0 0 -7.04784 -0.097161 -2.14513
1115 3 2 -6.16387 24.1601 -12.7787 0 0 0 12.4264 -15.2943 -11.5114
1489 3 2 -3.37511 24.0948 -13.2051 0 0 0 3.24035 0.251993 8.36764
1478 3 2 -12.9544 -19.6718 -12.1769 0 0 0 3.90015 14.1128 -0.990506
1064 3 2 -11.6177 -18.1258 -11.7973 0 0 0 2.39684 -2.71997 -1.71839
1314 3 2 11.1413 -16.9113 -12.2591 0 0 0 -12.1408 15.0022 1.73162
1006 3 2 12.2354 -7.71203 -12.0124 0 0 0 -0.229245 -13.6506 -14.6106
1932 3 2 -14.1653 -5.7462 -12.4202 0 0 0 15.2441 6.22524 -11.7255
1289 3 2 -18.4644 -3.14052 -12.0982 0 0 0 5.81442 -7.36553 -7.54373
1977 3 2 -3.55397 -2.07758 -11.7604 0 0 0 10.7774 -13.1586 3.75421
1122 3 2 -17.8734 -0.0676965 -12.4208 0 0 0 11.1715 -8.4309 6.69872
1642 3 2 -8.62822 3.96289 -12.0136 0 0 0 14.9396 13.7345 9.27379
1677 3 2 -7.15288 6.29426 -12.0101 0 0 0 0.489446 -1.86242 -13.9925
1812 3 2 4.86813 6.07085 -11.7634 0 0 0 -2.9871 4.87867 -2.14154
1582 3 2 19.5742 6.64445 -12.4274 0 0 0 14.6316 10.8889 10.8589
1161 3 2 -11.462 7.56075 -11.7366 0 0 0 0.914395 1.81336 9.13272
1874 3 2 21.364 11.6158 -11.7306 0 0 0 -3.158 1.87063 -9.33544
1175 3 2 -11.2566 13.6634 -11.8874 0 0 0 -5.50268 4.55396 10.2577
1193 3 2 17.9744 17.1344 -12.3348 0 0 0 13.153 14.6443 9.86587
1275 3 2 16.4071 20.9362 -12.1482 0 0 0 6.12064 -8.6148 14.2303
1552 3 2 -4.69657 -19.7003 -11.1593 0 0 0 8.58096 5.34961 1.99749
1281 3 2 -7.5944 -15.9836 -11.0469 0 0 0 9.17769 -13.7778 -13.5682
1770 3 2 -6.30191 -13.8221 -10.9931 0 0 0 -15.5459 2.18905 5.11075
1853 3 2 18.1327 -13.9759 -11.0145 0 0 0 -3.32473 4.7816 -7.39889
1124 3 2 -11.46 -12.7268 -11.3121 0 0 0 3.50191 2.04305 -11.2419
1086 3 2 17.3348 -11.9177 -11.5018 0 0 0 9.14582 -11.3343 -15.289
1423 3 2 -3.29179 -4.9833 -11.0795 0 0 0 14.2683 -4.75387 1.64971
1070 3 2 -1.31376 -0.753966 -11.5352 0 0 0 -14.4958 -6.49924 -0.853866
1059 3 2 14.7299 -0.550192 -11.279 0 0 0 6.06848 10.2471 15.7682
1304 3 2 -13.6163 1.15443 -11.6308 0 0 0 -2.75863 -9.89314 -6.43837
1761 3 2 -6.3208 3.23083 -11.0859 0 0 0 15.6854 8.77135 -11.9332
1687 3 2 -11.0386 3.87813 -11.3366 0 0 0 0.60546 9.57726 -15.684
1602 3 2 5.52505 9.57494 -11.695 0 0 0 3.75666 13.2134 2.759
1313 3 2 -8.54477 14.8309 -11.03 0 0 0 -14.5067 -3.24274 12.165
1220 3 2 -11.0492 15.4375 -11.4753 0 0 0 7.18799 -3.36204 -11.3653
1320 3 2 -16.2748 24.6463 -11.3743 0 0 0 0.276877 11.6956 -13.625
1696 3 2 6.59368 24.5742 -11.6792 0 0 0 -3.06588 3.60613 -14.7513
1361 3 2 -9.49501 -15.078 -10.2576 0 0 0 2.74308 -5.85262 -2.30862
1375 3 2 -18.9767 -11.5947 -10.3896 0 0 0 14.9937 -12.1592 14.8243
1504 3 2 -15.4123 -7.82457 -10.7184 0 0 0 -10.2535 -1.77284 -1.88544
1748 3 2 -12.3485 -4.37461 -10.41 0 0 0 13.118 -11.0257 -13.2331
1851 3 2 3.97834 -3.97577 -10.7383 0 0 0 10.5151 -13.068 -1.87197
1980 3 2 7.81571 -4.03907 -10.2905 0 0 0 -14.6933 -1.82049 -13.3571
1629 3 2 4.95451 2.44064 -10.9069 0 0 0 -3.2407 9.97079 2.02468
1232 3 2 13.2002 1.96994 -10.9261 0 0 0 -2.36581 -7.98671 -11.3189
1396 3 2 21.775 2.81332 -10.6945 0 0 0 -4.0447 0.315355 -1.011
1916 3 2 6.33295 10.9703 -10.8911 0 0 0 -5.24605 14.5357 -12.7046
1079 3 2 17.5084 10.563 -10.6072 0 0 0 -8.8663 -11.0555 -8.99447
1751 3 2 -8.78121 12.5429 -10.5562 0 0 0 -4.74218 5.99017 -9.72062
1091 3 2 -5.41722 13.2843 -10.8347 0 0 0 7.82113 -10.0115 -12.5109
1639 3 2 23.4042 13.4521 -10.479 0 0 0 1.07527 9.91718 -5.67431
1565 3 2 12.3561 -17.9189 -9.72184 0 0 0 -11.0288 -7.82571 -5.92643
1294 3 2 -11.1354 -14.2627 -9.54958 0 0 0 7.59782 8.33611 8.33614
1775 3 2 13.3218 -3.62016 -10.029 0 0 0 0.609944 9.34469 12.3531
1651 3 2 -10.3447 0.363826 -10.0987 0 0 0 -14.7491 -15.5109 -7.02524
1703 3 2 -2.2977 -0.379946 -9.71994 0 0 0 14.7143 -5.29569 -11.0526
1460 3 2 -17.2586 2.0174 -9.54968 0 0 0 15.5429 4.88819 -12.4397
1943 3 2 15.4429 2.44144 -9.57581 0 0 0 -7.06227 7.97104 -2.46418
1440 3 2 16.8852 2.93934 -9.69107 0 0 0 4.17016 -12.9015 12.0654
1801 3 2 5.99026 5.72006 -9.89054 0 0 0 -2.97871 -15.4292 -8.91728
1818 3 2 -20.1545 6.99979 -9.84978 0 0 0 -6.3863 1.17322 -9.34416
1547 3 2 6.89019 8.11376 -9.86795 0 0 0 -2.98186 15.6996 6.96111
1442 3 2 20.983 12.1076 -9.59601 0 0 0 -1.42505 0.300176 5.91425
1549 3 2 18.0019 13.0951 -9.44767 0 0 0 -13.8872 12.3405 4.11689
1368 3 2 1.78197 16.3825 -9.67544 0 0 0 1.0092 -5.48032 15.3953
1010 3 2 1.19724 19.0011 -9.85679 0 0 0 14.8477 12.7713 -1.64589
1323 3 2 4.93025 21.9382 -9.54964 0 0 0 6.44964 4.28723 13.9214
1009 3 2 -4.97696 22.7107 -9.73461 0 0 0 -6.24993 -1.14847 10.4028
1597 3 2 24.2556 -18.7292 -8.75643 0 0 0 -5.86793 4.08522 3.99705
1185 3 2 -4.86633 -15.7465 -8.67203 0 0 0 -6.56742 10.8033 -8.33201
1251 3 2 15.0091 -9.77779 -9.3581 0 0 0 -6.93929 5.61809 -13.6193
1362 3 2 -7.2103 -1.78599 -8.74017 0 0 0 -6.36231 7.05052 8.85318
1591 3 2 16.4289 0.606442 -8.75339 0 0 0 -14.8171 -4.06778 -5.0457
1305 3 2 6.52737 2.85769 -8.66383 0 0 0 15.5605 -11.2348 5.61826
1114 3 2 8.38593 3.34728 -8.63592 0 0 0 -12.2025 -5.20146 -1.3004
1678 3 2 18.3969 5.67796 -8.87955 0 0 0 4.69808 4.10854 10.8717
1621 3 2 7.08333 7.2646 -9.15736 0 0 0 -13.7222 -1.60887 -10.008
1922 3 2 -17.5826 8.56299 -8.89422 0 0 0 -7.0084 -14.7672 -5.61396
1576 3 2 -14.1487 10.0335 -8.96564 0 0 0 -3.96437 1.12647 -7.83842
1372 3 2 -9.33361 9.65958 -8.7723 0 0 0 -4.38063 3.93184 -15.3646
1560 3 2 24.6785 11.3236 -8.79941 0 0 0 11.6882 12.9972 -5.95336
1524 3 2 20.6459 17.5045 -9.28983 0 0 0 -8.6295 10.7822 -5.00836
1211 3 2 4.42722 19.7326 -9.21387 0 0 0 -0.337428 14.2632 4.10707
1103 3 2 18.9248 24.2918 -8.64143 0 0 0 -5.00952 -6.68599 11.9224
1298 3 2 -5.75476 -19.5371 -8.43683 0 0 0 7.64285 -0.855883 -2.54325
1702 3 2 22.0633 -16.6484 -8.12176 0 0 0 -1.91792 -2.21776 -14.5795
1493 3 2 1.06821 -8.26967 -8.20342 0 0 0 -3.14222 -15.2275 -8.32516
1939 3 2 20.3855 -5.72161 -8.50843 0 0 0 7.55901 -0.0101726 2.80634
1060 3 2 -15.9082 -4.51566 -7.92147 0 0 0 8.47721 -5.98678 -11.3673
1112 3 2 -18.5892 -3.75898 -8.07126 0 0 0 15.7053 -1.20347 5.59932
1551 3 2 -11.3485 0.783785 -8.09985 0 0 0 6.13366 -12.7399 3.91221
1269 3 2 -8.66807 2.12295 -8.05336 0 0 0 -15.3691 14.328 3.6326
1071 3 2 17.5922 3.25427 -7.87472 0 0 0 -4.37473 -6.82812 -0.673428
1213 3 2 8.62069 4.66646 -7.99893 0 0 0 -1.43439 4.75461 -15.226
1447 3 2 5.21418 6.7619 -8.07564 0 0 0 -0.420513 7.29717 4.8414
1958 3 2 -8.33732 9.42758 -8.07871 0 0 0 -2.46043 0.664177 11.3839
1815 3 2 6.55878 9.2043 -8.11118 0 0 0 -14.6605 -3.04098 -14.3642
1204 3 2 -12.9471 12.5527 -8.22626 0 0 0 9.50156 3.84374 9.29239
1674 3 2 9.22211 14.901 -8.34784 0 0 0 -6.5816 -8.11231 1.33613
1076 3 2 -4.94608 15.7628 -7.81972 0 0 0 -11.896 -3.17596 -9.8894
1764 3 2 -19.4294 19.096 -8.3766 0 0 0 -10.9834 4.08202 -9.96303
1829 3 2 -6.85785 -19.8306 -7.37376 0 0 0 3.84181 -5.04453 10.1015
1605 3 2 -10.3033 -18.4864 -7.64782 0 0 0 -6.94796 10.7978 -14.7676
1170 3 2 -1.01411 -14.6244 -7.71748 0 0 0 -11.5703 12.5674 2.63015
1945 3 2 -9.40577 -9.47672 -7.69205 0 0 0 -12.0017 4.18916 -13.8991
1912 3 2 3.93341 -6.01873 -7.24655 0 0 0 -15.2551 12.0607 2.14864
752 1 1 2.63724 -2.28258 -7.11473 0 0 0 9.10827 2.58992 13.2989
465 1 1 1.99941 -0.433704 -7.2884 0 0 0 -5.57429 3.23206 -3.22895
1045 3 2 22.4661 1.6345 -7.3578 0 0 0 -5.90461 -10.4133 10.6787
1923 3 2 7.00759 2.0578 -7.65397 0 0 0 0.958114 -11.707 -14.4868
1247 3 2 -15.7185 2.96456 -7.08275 0 0 0 -9.29696 -1.94 -7.33115
1691 3 2 -14.6346 3.12275 -7.34363 0 0 0 -0.774664 2.04504 7.20716
1446 3 2 16.0549 2.74587 -7.34928 0 0 0 -11.4668 7.277 7.86732
1345 3 2 -13.6089 7.09936 -7.3258 0 0 0 -11.2292 14.399 10.5579
1944 3 2 9.61013 9.0422 -7.69256 0 0 0 5.99745 0.957969 8.30049
1909 3 2 11.2778 10.2724 -7.4005 0 0 0 -4.41929 -15.2993 15.5398
1995 3 2 -13.6859 10.5268 -7.46159 0 0 0 -13.314 1.14079 -14.6413
1321 3 2 8.31589 10.8498 -7.10004 0 0 0 -8.86072 12.7099 -15.494
1839 3 2 -16.0407 11.3593 -7.17542 0 0 0 5.4444 -9.12007 -0.316197
1914 3 2 6.64168 15.1158 -7.08676 0 0 0 -7.93413 -4.73665 12.6523
1412 3 2 14.7828 15.1151 -7.6529 0 0 0 7.99395 9.13451 11.8777
1155 3 2 1.30911 17.9673 -7.46196 0 0 0 15.7347 -13.3678 -10.4581
1785 3 2 -17.357 18.6066 -7.29914 0 0 0 4.21554 -15.2652 6.74924
1043 3 2 -12.5877 19.4403 -7.2759 0 0 0 -6.74294 1.28212 13.1934
1757 3 2 -3.36621 22.5806 -7.17197 0 0 0 4.39921 -14.809 1.00603
1234 3 2 -3.52972 23.5514 -7.73837 0 0 0 -5.47419 13.2317 -5.11725
1398 3 2 -13.4305 24.27 -7.10135 0 0 0 2.04926 10.5394 1.84532
1999 3 2 -1.27228 -15.598 -6.93623 0 0 0 11.0479 3.71865 5.42991
1106 3 2 21.3755 -14.3587 -6.90481 0 0 0 -6.82634 -8.39128 14.2367
1177 3 2 18.0231 -13.4748 -6.77901 0 0 0 -3.59749 -13.9855 -14.0198
1833 3 2 6.22615 -6.60612 -6.90303 0 0 0 13.4742 8.83004 4.33775
1884 3 2 0.894051 -6.01775 -6.84882 0 0 0 1.24912 1.30382 -9.91481
500 1 1 2.16824 -3.94756 -6.44489 0 0 0 -6.05783 4.75561 -0.284446
564 1 1 -2.49492 -2.92558 -6.3304 0 0 0 -14.5752 1.51444 -14.9584
874 1 1 -1.40261 -2.95198 -6.58629 0 0 0 -3.51702 -14.1629 6.09916
166 2 1 1.90682 -2.85999 -6.35624 0 0 0 3.75393 8.96451 0.0931523
718 1 1 3.01245 -3.27799 -6.75781 0 0 0 11.0621 -7.84786 9.49617
1260 3 2 20.9942 -2.87574 -6.29132 0 0 0 -1.33113 3.25008 -9.55824
813 1 1 1.26829 -1.98232 -6.64169 0 0 0 -14.2449 14.4702 -10.9539
622 1 1 3.89004 -2.52239 -6.60285 0 0 0 -5.18539 -8.06458 -7.45884
438 1 1 2.18048 -1.32606 -6.63216 0 0 0 -13.2816 8.85773 -12.8119
296 2 1 3.25236 -1.61015 -6.46018 0 0 0 -4.78757 4.56421 10.8192
100 2 1 1.14242 -0.86931 -6.70958 0 0 0 -6.06758 13.4941 14.8751
534 1 1 3.06728 -0.411591 -6.94462 0 0 0 -11.5686 -1.39773 -10.7326
1752 3 2 -11.751 -0.0693257 -6.43152 0 0 0 -8.47584 2.81016 -10.7908
975 1 1 -0.258385 -0.0195151 -6.58226 0 0 0 -7.21645 -1.23738 -13.0665
1218 3 2 7.80801 -0.137101 -6.59607 0 0 0 -0.136783 4.52004 -8.84222
898 1 1 -0.914315 0.863514 -6.82419 0 0 0 1.95804 -9.04755 8.77886
1963 3 2 -10.2803 1.80357 -6.52122 0 0 0 1.62653 14.2417 -7.3134
565 1 1 -0.670816 1.87157 -6.38698 0 0 0 -3.98079 -12.4889 -14.3114
1042 3 2 -15.5213 5.11131 -6.54283 0 0 0 -2.23506 4.38834 3.64555
1058 3 2 -19.3096 6.87571 -6.66579 0 0 0 1.07694 -14.2538 -6.58187
1931 3 2 -18.0258 11.6877 -6.94267 0 0 0 -14.4138 -13.9957 -4.6823
1936 3 2 20.1013 13.6964 -6.71246 0 0 0 -2.24787 -3.5261 12.0413
1303 3 2 -8.08413 14.8543 -6.83672 0 0 0 -7.42362 11.5067 15.7893
1794 3 2 17.8645 14.9524 -6.87954 0 0 0 -13.2725 7.99946 12.4301
1386 3 2 -3.31748 21.4786 -6.89577 0 0 0 3.57102 3.22623 10.2745
1614 3 2 -12.251 24.1031 -6.8793 0 0 0 -4.03616 -0.74585 14.1269
1988 3 2 9.22264 23.8287 -6.78587 0 0 0 -0.594281 0.381681 5.47337
1942 3 2 19.0949 23.5037 -6.78114 0 0 0 -13.2644 -2.24955 -5.21916
1084 3 2 10.1763 -20.112 -6.23148 0 0 0 7.58685 -13.3567 1.32862
1373 3 2 15.6336 -14.2847 -5.86444 0 0 0 -5.31553 -15.3458 -10.5636
1989 3 2 4.60881 -12.4609 -5.98681 0 0 0 6.39803 0.404486 2.51583
1337 3 2 -11.1373 -10.783 -5.92086 0 0 0 -11.34 -0.41933 4.74934
1109 3 2 19.7866 -10.1435 -5.64888 0 0 0 5.52364 -6.53658 3.13644
1953 3 2 -14.9782 -8.28849 -6.19898 0 0 0 0.366289 13.1948 7.80697
1894 3 2 -7.2634 -8.28737 -5.59322 0 0 0 3.19987 7.79799 7.14764
274 2 1 -4.90473 -3.44925 -5.73656 0 0 0 -12.549 -0.120826 12.4683
689 1 1 -3.84537 -3.1203 -5.9056 0 0 0 0.710969 -8.80491 3.46271
791 1 1 2.53703 -3.34784 -5.5662 0 0 0 -13.2908 -10.6668 3.25002
996 1 1 3.89519 -3.3735 -5.50731 0 0 0 -8.01644 -9.29086 5.20041
656 1 1 -4.77225 -2.43387 -6.19534 0 0 0 13.0192 -9.08642 -12.2239
41 2 1 -1.07959 -2.213 -5.80603 0 0 0 9.45211 -3.53447 -3.37236
970 1 1 3.24094 -2.47972 -5.68852 0 0 0 4.04664 0.869388 -9.08638
731 1 1 -2.90783 -1.90909 -5.91111 0 0 0 -6.17129 12.0708 9.27075
659 1 1 -1.89131 -1.4438 -5.71177 0 0 0 -7.31953 -7.27699 7.65027
662 1 1 0.547324 -1.45183 -5.95749 0 0 0 15.5114 -12.2552 -12.7765
403 1 1 2.64942 -1.17113 -5.62173 0 0 0 -7.34305 6.06113 -4.50532
634 1 1 -3.96787 -1.07326 -5.55437 0 0 0 -13.8337 1.09579 7.59183
979 1 1 -0.813824 -1.13003 -5.67989 0 0 0 -11.2095 -8.0905 14.6886
814 1 1 4.36399 -0.554921 -5.58236 0 0 0 0.448392 5.10026 -13.3966
325 1 1 7.22533 -0.769872 -5.75495 0 0 0 -9.25958 9.77626 1.20703
1701 3 2 -16.0803 -0.0148692 -5.6218 0 0 0 5.99042 -8.64586 15.5433
526 1 1 -3.37583 -0.0576039 -5.57542 0 0 0 7.55062 0.775277 -0.290082
103 2 1 -1.29782 0.0414403 -6.16381 0 0 0 14.3902 -7.46124 -14.2824
755 1 1 0.582995 -0.329906 -5.9002 0 0 0 6.54349 5.16158 -10.5102
302 1 1 2.23889 -0.293594 -6.19677 0 0 0 4.45221 -0.630511 -13.8203
244 2 1 3.30779 -0.291126 -5.85504 0 0 0 -2.972 10.1586 14.7565
43 2 1 0.0273169 1.00716 -6.23091 0 0 0 -3.44056 -11.2766 13.3737
435 1 1 0.0302158 2.5216 -5.7502 0 0 0 12.5526 -2.25955 8.96326
353 1 1 1.41335 2.2394 -5.73592 0 0 0 -6.18242 -9.59526 14.653
1428 3 2 8.96235 2.11027 -6.22662 0 0 0 -14.8344 7.82641 -11.4798
185 2 1 -3.91811 3.02174 -5.67317 0 0 0 -4.15931 4.03818 6.09345
371 1 1 -2.86484 3.16042 -6.03475 0 0 0 -1.20223 -10.4056 1.42566
497 1 1 -1.7899 2.88481 -6.20141 0 0 0 -2.99568 3.54727 13.0469
678 1 1 -0.812812 3.26582 -5.80245 0 0 0 14.9045 5.7043 6.25108
806 1 1 0.753354 3.37465 -5.84149 0 0 0 5.02129 -10.019 8.02084
1258 3 2 22.0106 2.95275 -6.02962 0 0 0 -14.4634 2.27545 11.0987
925 1 1 -3.47826 4.05283 -5.72251 0 0 0 9.28994 5.9776 -11.2159
728 1 1 0.506931 4.87918 -5.75247 0 0 0 -10.8648 -8.29827 -6.09192
1437 3 2 20.2509 5.39526 -5.48028 0 0 0 -9.87862 7.60382 1.2931
1800 3 2 11.6232 13.2048 -5.63894 0 0 0 11.5101 12.598 5.40148
1559 3 2 -2.705 17.4502 -5.8265 0 0 0 -0.0130206 12.1103 12.9464
1581 3 2 -9.81635 18.6478 -5.48554 0 0 0 2.92174 -14.6528 7.23724
1392 3 2 -3.83409 21.3324 -5.90252 0 0 0 -5.80141 7.88365 -2.50783
1253 3 2 -6.86408 22.7727 -5.93355 0 0 0 -15.1201 0.183804 1.935
1357 3 2 -19.1687 23.9606 -5.81511 0 0 0 4.5484 -0.531765 -0.0310136
1231 3 2 -0.462081 24.1175 -5.81234 0 0 0 12.8246 -5.92032 -9.48816
1871 3 2 -9.9865 24.6666 -5.80802 0 0 0 10.7255 -15.3473 -5.88626
1131 3 2 20.994 -17.8904 -4.97574 0 0 0 9.82836 1.37759 14.7819
1969 3 2 22.9737 -16.9202 -4.89953 0 0 0 -13.3333 -10.7989 -15.2711
1152 3 2 -4.14781 -14.601 -5.07666 0 0 0 9.43753 -12.4178 11.4399
1494 3 2 2.36464 -12.9195 -4.96984 0 0 0 6.80567 5.90537 0.558112
1978 3 2 14.5871 -11.5816 -5.39081 0 0 0 1.90283 8.34513 9.34839
1005 3 2 -12.2012 -9.63547 -4.76181 0 0 0 -6.39343 -1.22925 8.29455
788 1 1 3.22213 -5.08737 -5.09939 0 0 0 -3.296 -10.5458 7.49782
1082 3 2 6.02784 -4.50781 -5.26949 0 0 0 1.84766 15.6517 6.47701
533 1 1 -4.15555 -3.66063 -4.92828 0 0 0 11.4688 -11.4426 1.10261
397 1 1 -2.53431 -3.72307 -4.72249 0 0 0 -12.9982 3.51432 -15.1963
769 1 1 1.0786 -4.22489 -4.83273 0 0 0 -2.54946 -14.4465 3.65182
87 2 1 3.17667 -3.98415 -4.89892 0 0 0 6.96225 11.642 4.82828
1705 3 2 -14.0058 -2.78053 -4.89317 0 0 0 8.77595 -11.7738 -7.68686
112 2 1 -2.93824 -2.85115 -5.30219 0 0 0 -6.74556 14.3912 1.54718
762 1 1 -0.838633 -2.8449 -4.91052 0 0 0 13.2357 -0.923169 9.88941
973 1 1 0.581769 -3.22891 -4.69026 0 0 0 3.66529 -12.6533 8.96901
610 1 1 1.41938 -3.28069 -5.43712 0 0 0 9.57105 11.5393 7.23814
1046 3 2 6.21864 -3.12609 -5.04934 0 0 0 13.4647 -0.900993 2.02561
1583 3 2 9.98251 -2.70173 -5.32018 0 0 0 -0.0210257 2.46038 -14.7606
982 1 1 -5.56835 -2.60082 -5.42215 0 0 0 -4.77872 -0.292409 -13.4504
92 2 1 -4.48678 -2.60404 -5.1236 0 0 0 1.49332 8.54905 -4.82067
1749 3 2 -0.210913 -1.93506 -5.14915 0 0 0 5.78319 -1.32414 -8.30568
215 2 1 0.825086 -2.33566 -5.32434 0 0 0 -14.3849 -4.28449 -12.1013
116 2 1 3.90626 -2.51443 -4.78557 0 0 0 0.584882 0.154556 -3.6467
553 1 1 5.74955 -2.10915 -4.8101 0 0 0 3.52802 7.03782 3.77159
574 1 1 -4.90908 -1.49609 -5.1131 0 0 0 -0.683796 -9.13456 6.6036
916 1 1 -3.62107 -1.87531 -4.84259 0 0 0 -3.53148 -14.4343 -7.58152
106 2 1 -2.49919 -1.86374 -4.86702 0 0 0 -3.48745 -4.0682 -3.2787
406 1 1 0.844734 -1.30351 -4.88466 0 0 0 -5.4674 10.7132 5.8943
318 1 1 1.88883 -1.90678 -4.91808 0 0 0 -7.50184 7.05739 2.00232
295 2 1 3.00213 -1.84611 -4.79135 0 0 0 6.94855 -1.87746 6.96229
461 1 1 3.88857 -1.59833 -5.43333 0 0 0 2.87698 -1.15984 0.566428
70 2 1 5.18339 -1.23386 -5.226 0 0 0 13.8501 -12.1462 0.812228
571 1 1 6.32199 -1.32493 -5.38726 0 0 0 3.10002 10.9349 4.09
258 2 1 -3.12871 -0.867105 -4.83855 0 0 0 1.35835 9.30339 5.67608
342 1 1 -1.58641 -0.468136 -5.20665 0 0 0 5.16281 11.4489 -3.38364
154 2 1 1.53728 -0.556234 -5.35501 0 0 0 10.1531 2.75398 7.88616
401 1 1 3.3728 -0.788515 -4.85134 0 0 0 1.82769 11.4144 -7.46881
83 2 1 6.83009 -0.539996 -4.73002 0 0 0 12.3894 15.8043 -9.43032
1403 3 2 12.3545 -0.424571 -4.79596 0 0 0 -6.39227 -13.7948 -12.368
729 1 1 2.33273 0.144576 -4.98628 0 0 0 6.28322 11.1428 7.71316
955 1 1 5.83453 -0.320249 -5.19881 0 0 0 -1.88413 7.26866 -2.25499
1312 3 2 -17.2185 0.487742 -4.95237 0 0 0 -2.45242 -2.96464 -2.15898
155 2 1 -3.60088 0.983913 -5.22317 0 0 0 -14.5404 -2.42821 3.7213
992 1 1 -2.7135 0.551079 -4.69008 0 0 0 9.04754 -12.037 -11.3147
800 1 1 -1.13207 0.66933 -5.24869 0 0 0 9.93047 -14.2687 -6.69849
888 1 1 -1.90353 1.60232 -5.25108 0 0 0 -4.60169 15.2267 -1.29567
377 1 1 0.75747 1.35514 -5.45275 0 0 0 10.4075 -5.61127 -12.634
173 2 1 1.44341 1.81998 -4.69566 0 0 0 -2.15073 3.29047 6.94747
350 1 1 -3.38273 2.0603 -5.45331 0 0 0 -2.78305 14.4546 8.12827
721 1 1 -2.46217 2.57297 -5.05169 0 0 0 -9.17894 10.6058 -5.53456
237 2 1 -0.990823 2.24273 -5.37758 0 0 0 4.64364 -7.43109 14.9134
1077 3 2 2.92648 1.94736 -4.97696 0 0 0 -5.84339 14.3744 13.7591
864 1 1 -4.72819 3.39594 -4.99274 0 0 0 15.014 8.93426 15.4489
141 2 1 -3.22363 3.37589 -4.86442 0 0 0 3.65386 -0.110161 -13.3536
117 2 1 0.930636 2.80158 -4.89324 0 0 0 -12.0679 4.50458 -13.8441
818 1 1 2.03887 2.77971 -4.71724 0 0 0 7.16112 -10.2841 0.0822884
798 1 1 -1.52276 4.40016 -4.91263 0 0 0 9.14768 -0.708667 -9.83228
485 1 1 -0.508382 4.63206 -5.3436 0 0 0 8.62907 -2.68293 7.86523
486 1 1 -2.26609 5.23118 -5.03832 0 0 0 -12.9613 0.11806 10.3099
437 1 1 -0.891651 5.68522 -5.22337 0 0 0 3.63454 -1.36634 3.94609
90 2 1 0.127232 5.41161 -4.84066 0 0 0 -0.762168 12.1069 -6.01092
1966 3 2 11.2107 6.90747 -5.43516 0 0 0 -6.81673 -6.99128 7.88746
1237 3 2 23.1485 7.58069 -5.19108 0 0 0 -11.3329 10.4148 -10.2022
1635 3 2 16.0927 13.4019 -5.40929 0 0 0 4.69548 6.86302 -11.2202
1811 3 2 -18.3978 17.224 -5.13795 0 0 0 -3.66234 -14.8064 -10.9225
1235 3 2 -8.60231 17.7054 -4.88784 0 0 0 -4.62351 -9.50258 -0.403708
1063 3 2 -1.674 20.8726 -4.83994 0 0 0 -10.6088 -10.8733 -0.523953
1961 3 2 -6.10199 -17.7251 -4.2758 0 0 0 -9.99536 -3.79834 12.3526
1569 3 2 2.40168 -14.8828 -4.122 0 0 0 13.4501 1.5104 14.977
1108 3 2 19.2593 -10.7289 -4.40695 0 0 0 -0.276093 -10.6932 -3.04093
1948 3 2 -5.23535 -9.8724 -3.98867 0 0 0 -7.17279 15.2912 -14.6182
1512 3 2 10.9909 -10.0134 -4.19064 0 0 0 5.94335 -5.47111 0.311973
1567 3 2 -2.50765 -9.45126 -4.38206 0 0 0 12.1152 -14.5021 -5.79973
1095 3 2 -15.9885 -8.52614 -4.13155 0 0 0 -13.2998 10.8055 13.7148
655 1 1 0.588811 -6.00347 -4.3327 0 0 0 14.0504 13.9287 -4.69478
1934 3 2 -1.15737 -5.48589 -4.06291 0 0 0 8.32356 7.59891 -2.94135
1589 3 2 -0.0826902 -5.08454 -4.49153 0 0 0 5.90896 14.8384 -4.03217
79 2 1 1.30196 -5.14346 -4.22813 0 0 0 -3.45276 13.3357 5.61883
754 1 1 2.12659 -5.76431 -4.66817 0 0 0 12.9959 1.30712 15.1876