New configuration

2000 atoms
3 atom types
1297 bonds
1 bond types

-25.0 25.0 xlo xhi
-25.0 25.0 ylo yhi
-25.0 25.0 zlo zhi

Masses

1 1
2 1
3 1

Atoms

1 1 1 -2.021954422192398 5.500915251829468 -1.7972096784008624 0 0 0
2 1 2 0.13113618032782684 7.040244339958412 -0.26027689260798714 0 0 0
3 1 2 3.79032599297786 0.7060544019509934 4.175977778976433 0 0 0
4 1 2 3.2163099372019186 -0.9405476997861244 -1.9530393508459607 0 0 0
5 1 2 -4.757577785883422 -4.9560432187379915 3.174689793455576 0 0 0
6 1 2 4.601768573976493 -1.4615842922125506 -3.557241228035887 0 0 0
7 1 2 -0.8770490058183648 2.494010350233156 -3.194045893868142 0 0 0
8 1 2 4.082754752821619 2.527798465749044 4.392050845979057 0 0 0
9 1 2 5.954714702580737 1.455537536975124 1.5124101568494914 0 0 0
10 1 2 4.80762414080467 -0.7104946087119317 -4.739888860795813 0 0 0
11 1 2 1.5029644950659529 5.918720341477308 2.271113573735188 0 0 0
12 1 2 2.5335154549315475 6.101357550502902 -0.961176015458756 0 0 0
13 1 2 2.610391337791507 5.099365091227364 3.19203440500954 0 0 0
14 1 2 -4.403016306877765 -1.167389510870788 -2.7581989368587263 0 0 0
15 1 2 5.680106916859373 0.5953737037759469 1.1977020239377896 0 0 0
16 1 2 5.130198217326857 0.4521112127919586 1.101167344865615 0 0 0
17 1 2 -0.3013632280416513 0.7128364312508239 -0.25935743808794115 0 0 0
18 1 2 1.9544591066977544 2.9334147404305058 0.8954013499292937 0 0 0
19 1 2 7.04860029907306 -1.8383442405118369 -0.6581427968923498 0 0 0
20 1 2 -0.19417220248138492 -0.5598562734494338 4.7077835349537125 0 0 0
21 1 2 -5.48627617235553 -3.755976528219639 3.898469103621488 0 0 0
22 1 2 5.205899565796092 1.3410688166346054 3.287147771284151 0 0 0
23 1 2 0.3407675083774652 -6.499606192170307 -2.6566845060913367 0 0 0
24 1 2 -6.116593544141802 -1.061151357206164 -1.800159805859918 0 0 0
25 1 2 3.9432494737148014 4.801764374049572 2.4911615755726637 0 0 0
26 1 2 -5.359581179703704 -1.6368476047271243 -4.121524986031119 0 0 0
27 1 2 3.4924091630282783 -1.1212192075459324 -3.15211867021466 0 0 0
28 1 2 -1.687800848736125 0.8010859764296915 4.536238242906665 0 0 0
29 1 2 2.6830227630899777 3.651043403122757 3.9485904594681656 0 0 0
30 1 2 1.5973722646546518 7.7204896201356625 -0.920706376562354 0 0 0
31 1 2 -0.8807082720016965 6.553335349299924 -2.3451827019990503 0 0 0
32 1 2 -2.5698937866135765 -6.251367455430874 -0.9804145216613736 0 0 0
33 1 2 0.8203792389498725 0.2401216421956193 -1.2332350549097273 0 0 0
34 1 2 0.7204347732527513 3.175197695318157 3.995916488432395 0 0 0
35 1 2 0.3152103566242577 0.38493453362458824 -4.161357989888654 0 0 0
36 1 2 -3.488914521910485 -4.660066357485851 0.6962400266537653 0 0 0
37 1 2 3.9937257910503985 -1.729686803608927 3.5424645707693663 0 0 0
38 1 2 7.499251276800487 2.932218443333987 2.519331539619614 0 0 0
39 1 2 -3.7036891289811615 0.20317573888465806 -1.7762383515478075 0 0 0
40 1 2 -1.393574163526746 0.4816773554298964 -4.214517285426592 0 0 0
41 1 2 -1.1610761881720244 -2.168336854393785 -5.660395630260044 0 0 0
42 1 2 -1.9049107234926752 3.8996149234176674 -1.6517673667956767 0 0 0
43 1 2 0.19613568111917729 1.0284005018963391 -6.309339261711036 0 0 0
44 1 2 -0.644387893260903 -6.632005799499215 -1.9940644033146255 0 0 0
45 1 2 -1.0661961819913948 1.4313342227912162 1.5169715815942129 0 0 0
46 1 2 0.4408525757089077 -4.984696748837815 1.4629233206649932 0 0 0
47 1 2 -4.547200732055334 -3.4131455821520222 -3.682782173819944 0 0 0
48 1 2 0.4674709120107847 2.2088818496430767 -0.42753666335630336 0 0 0
49 1 2 3.015231817281196 -5.5239495050028085 -3.9848681550497136 0 0 0
50 1 2 1.1892649711536694 5.030499543930677 0.35040996888142045 0 0 0
51 1 2 -4.375939899977916 0.9690159177154964 -3.804136475304548 0 0 0
52 1 2 0.3522101523131628 -3.539394022453866 3.7178309573947095 0 0 0
53 1 2 -0.4571573736057421 6.0202587277980655 -1.4770466479108566 0 0 0
54 1 2 -3.8177011029963897 -1.350684272697373 8.011316490161244 0 0 0
55 1 1 4.596095983831294 0.1421711434671756 -2.300751501499312 0 0 0
56 1 2 6.376988011877345 -2.80560975046716 -3.8034483532811993 0 0 0
57 1 2 -2.628173072145387 2.117869199381246 0.6173170078132255 0 0 0
58 1 2 1.227146689675557 2.040337999171604 1.6532674602954196 0 0 0
59 1 2 -0.17452221152910566 3.168126428076356 5.082507169783822 0 0 0
60 1 2 -2.049799870478606 -5.278004366793054 0.6873953260474658 0 0 0
61 1 2 1.1026714739347614 0.9166466243334505 4.2821595885667225 0 0 0
62 1 2 -2.6206857386719045 -0.5384253578377818 5.621013749796185 0 0 0
63 1 2 1.9726468533007973 -4.267263337465371 0.3257128430115485 0 0 0
64 1 2 2.5535086914360674 7.337477022535983 0.2992746570626979 0 0 0
65 1 2 4.2803448150203165 3.5719031269674537 3.024041399504086 0 0 0
66 1 2 -4.0961998279815175 -0.35954105329191205 -0.0877305520573928 0 0 0
67 1 2 2.176448385560233 -1.4939852450106208 -4.607273177525371 0 0 0
68 1 2 -2.220694575631593 -2.7363085443356474 6.551640323924762 0 0 0
69 1 2 -0.9954180855054516 -3.4999046239924767 5.188395629092876 0 0 0
70 1 2 5.181175127218869 -0.956310766579138 -4.969357252965816 0 0 0
71 1 2 3.334427791786672 3.8278124925028334 -0.4632120839915316 0 0 0
72 1 2 -6.0184754962500975 -3.6652224180161017 1.1840861128221507 0 0 0
73 1 2 -2.5118925659827243 -0.8024924231382426 -0.10811240533756884 0 0 0
74 1 2 -2.571482818595508 -3.0826665537232785 3.5039941026564447 0 0 0
75 1 2 -2.63418097014694 2.0390454268634515 1.0719396176835412 0 0 0
76 1 2 4.43195401139835 1.719675175997872 1.4788164081508055 0 0 0
77 1 2 -3.324355989443785 1.223685675366334 4.261254924945116 0 0 0
78 1 2 1.2404097089933024 -4.690307321204219 4.912643763285542 0 0 0
79 1 2 1.5915202526380825 -4.989313574893526 -4.1622947220158535 0 0 0
80 1 2 -1.2901536594968794 1.2970920783687585 3.479037070916713 0 0 0
81 1 2 -4.404846070111942 -2.853907824956037 1.7224512230411986 0 0 0
82 1 2 -1.7049568319196455 -3.072034570492276 -3.3203642226196655 0 0 0
83 1 2 6.732813994278538 -1.3881335194654405 -4.656566709093511 0 0 0
84 1 2 1.9674914725294512 -1.2573058680761466 -0.942745690443562 0 0 0
85 1 2 -4.363510121214105 -1.7719842803013226 0.1309032702232383 0 0 0
86 1 2 -0.9721238538267944 -1.6046232177079367 7.161544416412916 0 0 0
87 1 2 3.041771401137684 -3.7081721288580254 -4.52394658285694 0 0 0
88 1 2 6.3948935378554 -0.9298550728012486 -1.7346780116259617 0 0 0
89 1 2 -1.3941236986484566 -1.1532153349984873 3.6022950414220234 0 0 0
90 1 2 -0.1846548491753557 5.237992589108977 -4.436664471477574 0 0 0
91 1 2 -0.8083243768633219 -1.5853153005423408 0.5510683437030383 0 0 0
92 1 2 -4.313706199435027 -2.929350036029049 -5.163030820096364 0 0 0
93 1 2 -1.6921675357118398 -1.3970850962946724 -3.8851572036595594 0 0 0
94 1 2 -2.0935350831549537 -3.495436247361765 0.7597079956563789 0 0 0
95 1 2 2.773905203593118 1.994441988790278 5.543425591376502 0 0 0
96 1 2 1.616563796963431 -5.39444818423499 -0.8080012214110995 0 0 0
97 1 2 -0.7223141879034543 -0.3487951175365796 6.305080929872532 0 0 0
98 1 2 -1.9017533595784888 0.8246286430575414 2.506813460932896 0 0 0
99 1 2 -1.2316458631569591 0.8157839398711448 -2.529264863131087 0 0 0
100 1 2 1.291490282070606 -1.0389400671089757 -6.127839229731832 0 0 0
101 1 2 6.193283655877542 -0.4097899041542603 -3.238496752809477 0 0 0
102 1 2 -1.5621073813210522 3.284765242076962 4.669834863005734 0 0 0
103 1 2 -1.2689360450591078 0.07072127277749593 -5.980409261999096 0 0 0
104 1 2 0.499784904375125 -3.6700681356945015 -0.9684904911351596 0 0 0
105 1 2 3.820449901755144 -2.1168392903323583 3.557096831102229 0 0 0
106 1 2 -2.478687497222837 -2.014297397683319 -4.573773338385656 0 0 0
107 1 2 1.176813216521459 6.434328897399089 0.8524109130107421 0 0 0
108 1 2 5.936721091651215 4.142616187008489 2.760060527105064 0 0 0
109 1 2 0.902052611184409 3.938485663396072 3.3076801758696828 0 0 0
110 1 2 2.335176152777609 -3.3994823554170424 5.188648869182697 0 0 0
111 1 2 1.0271674194814493 0.7857409204243566 1.5787486039617702 0 0 0
112 1 2 -2.811443315762544 -2.7270384029428323 -5.0599678638211065 0 0 0
113 1 2 -3.7640686025104144 1.5799883270565327 -0.2544378049529996 0 0 0
114 1 2 -2.8412751264566904 2.074152798379105 -2.9723361159218955 0 0 0
115 1 2 -3.155045562316332 -0.2570978874735792 -3.077313562826651 0 0 0
116 1 2 4.0866096417997415 -2.3379716912606714 -4.9657346139454654 0 0 0
117 1 2 1.3839875296079138 2.3788708647069643 -4.70670315382527 0 0 0
118 1 2 -0.8883886605735248 6.922373106614433 -1.6251286340731492 0 0 0
119 1 2 2.1888223326481757 0.06908868561761342 2.853557773190276 0 0 0
120 1 2 4.502702854964024 4.071599587306699 1.1468006750753543 0 0 0
121 1 2 1.3691803135729292 0.6845929403961865 5.253386937072056 0 0 0
122 1 1 3.461739679391961 -3.408129399178665 -1.4797538645279835 0 0 0
123 1 2 4.188949442231793 2.201249452151296 -1.664310665089819 0 0 0
124 1 2 3.2166308649875814 -1.449750302438099 1.6545007121405704 0 0 0
125 1 2 -0.11911321391553048 -2.0533993413856524 5.390700639664787 0 0 0
126 1 2 -1.879514914241128 -6.471936852541512 -1.821804531774648 0 0 0
127 1 2 -0.4644042644500546 3.8068802056567614 -3.1482681366272094 0 0 0
128 1 2 2.7567818011937 0.6295872886871802 -4.620481943387423 0 0 0
129 1 2 -2.4882789939043115 -5.221099621926892 3.583768096601847 0 0 0
130 1 2 0.8869236136354942 -1.6599886188922357 6.308636747628936 0 0 0
131 1 1 -0.6557002751387487 -0.6659801874640277 -0.9432907052552616 0 0 0
132 1 2 -5.103269320054715 -4.921872274264532 2.400959751478764 0 0 0
133 1 2 -2.5716929547279546 -3.358823716071171 -1.6676659867283572 0 0 0
134 1 2 -3.508130642273992 2.8732798893851816 -3.668634216221321 0 0 0
135 1 2 -3.0354312306620432 -6.269049333156004 0.8353388351530614 0 0 0
136 1 2 -0.03252048221425467 -5.193394226027582 -0.7338137616675224 0 0 0
137 1 2 1.6896731954424753 0.32283806556601075 -3.5641595782147224 0 0 0
138 1 2 -0.2689162405377375 -1.2433915212290387 -3.3225817530283814 0 0 0
139 1 2 -1.9659320813187795 2.0463636191616095 4.5218276040109435 0 0 0
140 1 2 -2.9627515818481776 -3.867440441145879 4.0460598693055365 0 0 0
141 1 2 -3.468233757416082 3.1185195529023297 -5.013782415818312 0 0 0
142 1 2 1.8798647419461276 -2.1233035437022774 3.711351977109668 0 0 0
143 1 2 -5.843179572486451 -2.589041633981694 5.364332662087684 0 0 0
144 1 2 2.8073300518675923 5.032578626886721 0.8454485770321741 0 0 0
145 1 2 -1.403726659599522 -2.396006602381468 2.5293948234996746 0 0 0
146 1 2 -0.6013932576544578 3.0178780739484705 3.215084714136382 0 0 0
147 1 2 -5.9047262629822495 -1.532599903939718 5.616325512674138 0 0 0
148 1 2 4.5142339036339525 -3.599803676874894 -4.350147642856694 0 0 0
149 1 2 -4.694804962633697 -1.715347310101008 6.4761603194532 0 0 0
150 1 2 2.3807220482223364 -3.944170059065773 -3.2805773567923486 0 0 0
151 1 2 2.7219741084718048 4.891176384703145 3.164608688705564 0 0 0
152 1 2 2.4995773041239424 3.404014216041304 2.016927985522575 0 0 0
153 1 2 -1.5135966495198707 -2.949829942178635 4.787044150134471 0 0 0
154 1 2 1.5504335364140869 -0.8047345824550048 -5.2510232801795835 0 0 0
155 1 2 -3.4185408981419054 1.1027015602159271 -4.87439714322135 0 0 0
156 1 2 -6.655424618966523 -0.7274277382270314 0.23861403743329826 0 0 0
157 1 2 1.2994173689460649 4.797304641983567 -2.4274044192216446 0 0 0
158 1 2 1.476271258872881 7.040365741831934 0.6609462447235198 0 0 0
159 1 2 -2.7109604000213787 -0.2800652419655885 -2.021780568409969 0 0 0
160 1 2 -5.13886643533198 -5.088076852004578 1.811525272832832 0 0 0
161 1 2 1.5811781929071398 5.414733129984341 -3.2269506820835416 0 0 0
162 1 2 3.16926301286598 -3.0868200631675604 -3.2346398945074077 0 0 0
163 1 2 -3.5109126899536305 -2.1687342248930457 7.99444484838619 0 0 0
164 1 2 -4.48162565114698 1.9842362220437568 -1.8894352621828432 0 0 0
165 1 2 -3.3460588957674444 0.2983796890350153 3.72999519606944 0 0 0
166 1 2 1.8316801446427189 -3.01669677054095 -6.020116094655086 0 0 0
167 1 2 0.6942680527705556 6.084478228009813 -2.885711666126482 0 0 0
168 1 2 6.297110355908066 -2.042538615793232 -1.6344805408199656 0 0 0
169 1 2 3.2292368723067417 2.9676364657031886 -1.9071667998835449 0 0 0
170 1 2 2.894788096926645 4.672310187858251 -1.1083438151381029 0 0 0
171 1 2 -2.235691415597843 3.5323182004765568 -1.3927544181558793 0 0 0
172 1 2 2.244125913809928 0.4951032731859421 0.6535363041558159 0 0 0
173 1 2 1.616864792905523 1.9992591549626328 -4.776551815796561 0 0 0
174 1 2 0.0009399781862750695 -2.0845064830676154 3.3532133174908254 0 0 0
175 1 2 1.3282849320500167 -4.307370750263331 -2.21606487112086 0 0 0
176 1 2 -2.5750581503943093 1.593836011525591 -4.149852117491635 0 0 0
177 1 2 -1.157253076296902 -3.9840781315204135 -0.4595125138902665 0 0 0
178 1 2 -2.06724277083062 -0.43756742272560584 1.058657603272279 0 0 0
179 1 2 4.396931210210358 -2.7299421180627235 -2.9744741950224536 0 0 0
180 1 2 2.472049859029979 4.089563627652986 0.3385885692655853 0 0 0
181 1 2 -0.09508421795020806 -3.0398364661842345 1.0878750635854348 0 0 0
182 1 2 1.7568579760092773 -3.325793484477082 -2.8749366979420845 0 0 0
183 1 2 -3.217249630170099 1.9972432615249944 1.6159512380593035 0 0 0
184 1 2 -5.634023562636189 -4.340301494267252 -0.7297687564916382 0 0 0
185 1 2 -3.643506259488044 2.875212621870471 -5.43263567800508 0 0 0
186 1 2 -4.75585165272742 -0.5385934461143885 -1.1090696527392694 0 0 0
187 1 2 0.4184572307881749 3.1697223057382438 4.781577084563695 0 0 0
188 1 2 -4.116812005709443 -0.9596180242973412 5.690055942010465 0 0 0
189 1 2 4.78756066092458 1.2424947425213135 -0.16243961210881533 0 0 0
190 1 2 -0.498966053761988 -2.700621064893755 -3.9194802786826126 0 0 0
191 1 2 -1.6605560775565622 -5.680570141255487 1.999858108195527 0 0 0
192 1 2 4.847966874630071 2.5261016428786247 0.4673102379113861 0 0 0
193 1 2 -3.4751886444719227 -1.1437388161708857 4.039193608527458 0 0 0
194 1 2 -5.2877019172185 -0.5208021831824649 1.843397075895904 0 0 0
195 1 2 0.8528085334495181 3.6200923804942353 -0.5426913055473359 0 0 0
196 1 2 2.09471696858112 2.1778262065995397 -2.085405589964532 0 0 0
197 1 2 -0.7145469222021555 7.492991643528592 -3.148879490831011 0 0 0
198 1 2 6.710285721143188 1.965187611522744 3.9002758668908792 0 0 0
199 1 1 3.695498894671115 0.6954549937670356 0.9904456364575374 0 0 0
200 1 2 -2.938017328654505 0.26020446291127675 -0.6270455712154654 0 0 0
201 1 2 2.0627503260868214 1.1439055523106194 -1.3582248670688433 0 0 0
202 1 2 -4.346614233822506 -2.580813139358604 5.000053183499396 0 0 0
203 1 2 -6.183163793956608 -1.7237003623816636 1.7006568931680652 0 0 0
204 1 2 -1.540047964418954 2.187935547364127 4.754508275164182 0 0 0
205 1 2 2.510925043852003 -0.529301557041 4.498178026833627 0 0 0
206 1 2 3.2825521213537887 -2.258549170290332 -1.2157311752433786 0 0 0
207 1 2 -5.871785066225546 -1.0579251546197126 4.406910712858513 0 0 0
208 1 2 -4.468521797293759 -4.491628476001709 -0.7900182366529411 0 0 0
209 1 2 -6.562534044257852 0.13788234708600308 -1.127791183458176 0 0 0
210 1 2 5.284380093565663 5.498751019433308 1.374325328662497 0 0 0
211 1 2 1.1466546482430433 -4.8042821153779744 4.777007492195965 0 0 0
212 1 2 5.378216010815798 -3.044274607034013 -2.573810369118721 0 0 0
213 1 2 2.015892793644732 2.3885560489875965 2.5906605341528146 0 0 0
214 1 2 -3.0886748610457584 -2.710121963196511 0.14151106706549485 0 0 0
215 1 2 1.0624945649741522 -2.2918338942267646 -5.456098449528598 0 0 0
216 1 2 -3.818891086043197 -1.545233031606424 3.392015379635342 0 0 0
217 1 2 -2.6176002738561013 1.0895852341834993 -1.7505901673205535 0 0 0
218 1 2 -4.586118428432337 -1.0532623091424902 0.4360820646542668 0 0 0
219 1 2 -4.793554638931078 -0.1721376495209033 -3.1916288147544543 0 0 0
220 1 2 -6.207574365238884 -2.460279792482845 -0.4172465772230761 0 0 0
221 1 2 -0.6255211077579488 -5.653045944684821 0.18914362759032494 0 0 0
222 1 2 3.261790186881972 2.999898155310964 3.6299782314164366 0 0 0
223 1 2 -3.0534174736266184 0.7942488987346019 1.488426414359212 0 0 0
224 1 2 6.901870449866337 1.076626570671276 2.5014691714825905 0 0 0
225 1 2 1.5496715500054228 3.425197797860918 -1.1449462274878317 0 0 0
226 1 2 -0.427757758183968 5.071845815849277 -4.141313542716025 0 0 0
227 1 2 5.7675815307246845 -0.4128625077907515 2.7782419553288946 0 0 0
228 1 2 -2.5566627508521367 -1.4788492797564772 -0.9961114586223314 0 0 0
229 1 2 -5.134559964629124 -2.18136443803971 -0.9750019824602904 0 0 0
230 1 2 4.533499765928942 -0.3280259627844847 3.7656982240745367 0 0 0
231 1 2 -1.205316515814281 -2.273126387064096 2.79207840927606 0 0 0
232 1 2 4.899545037785153 -4.670599886076291 -3.086937738043164 0 0 0
233 1 2 -1.95794962372185 3.601107804930096 1.7613443902813013 0 0 0
234 1 2 -3.5121574887924667 3.089509545381562 -1.77153483013978 0 0 0
235 1 2 -1.531201552977279 0.8432546263771316 -0.3897515661625357 0 0 0
236 1 2 3.4674928444841138 5.997704134473568 0.4571677660341338 0 0 0
237 1 2 -1.1658529375081204 2.331985054615533 -5.62259239131946 0 0 0
238 1 2 2.6368405939325066 1.848783943798564 3.803233101882833 0 0 0
239 1 2 3.8982801594938055 5.473073105539024 -0.9869077030113892 0 0 0
240 1 2 2.4204879262011167 -1.2409187513779472 -0.03204746737964437 0 0 0
241 1 2 -0.4276170276849613 1.4984572219871246 4.90454774952396 0 0 0
242 1 2 -2.480732977235677 -2.1091648294159007 1.841971066753452 0 0 0
243 1 2 3.592464327306889 3.161467664471634 -1.3434617519755532 0 0 0
244 1 2 3.865045613342105 -0.8072495797304029 -5.7869997043692525 0 0 0
245 1 2 5.583546429320747 -1.8474408301003395 -2.364408367129559 0 0 0
246 1 2 2.4804196370417664 -4.2047898840026585 -0.3201861248404008 0 0 0
247 1 2 2.396212342572873 2.040136510023953 -3.791298365185427 0 0 0
248 1 2 3.3121896982812125 2.882248823392738 1.4666956533744937 0 0 0
249 1 2 -0.9931785073401864 2.9753411490254145 -0.14807011545238666 0 0 0
250 1 2 1.7794080646016366 -5.6770278518545 -3.4880751731196247 0 0 0
251 1 2 5.5159103251239445 -2.710174582063163 -0.6678850107432004 0 0 0
252 1 2 1.46004425825568 -4.7834124485644045 1.4994305891129025 0 0 0
253 1 2 -2.082793022840019 5.621247925725734 -3.708529597059465 0 0 0
254 1 2 -3.5276798766731154 -1.9743660338532003 -1.8163832566897171 0 0 0
255 1 2 1.8109451724664896 -1.0937109051771527 2.775500489574043 0 0 0
256 1 2 -5.207068304438064 0.8172190241501994 -1.331598854814099 0 0 0
257 1 2 -3.3677305563422335 1.2931890980528356 2.607256417344284 0 0 0
258 1 2 -3.1450946593501534 -0.8629125367687644 -4.965315594884235 0 0 0
259 1 2 5.131722864947659 2.737890165474883 1.9205401875127648 0 0 0
260 1 2 0.10625332753914084 4.959994213720513 2.057621606033011 0 0 0
261 1 2 -4.911211573331284 -0.5526816147008253 5.173793206259396 0 0 0
262 1 2 0.034802563522204434 1.1144647304786592 3.103328703478463 0 0 0
263 1 2 -2.4622666968972218 4.089332819729888 -2.739539955384721 0 0 0
264 1 2 3.323009500423472 1.70993271480688 1.0670306269864709 0 0 0
265 1 2 -4.353985260931256 -5.8166212546286085 -1.277100869179847 0 0 0
266 1 2 -2.860277203070364 -0.6407753059868223 7.096055822072381 0 0 0
267 1 2 2.536407756346982 1.5078749587536824 -1.6553787533521735 0 0 0
268 1 2 -0.36942260673787103 -1.7649068172567153 6.011524906968488 0 0 0
269 1 2 3.354578916109052 3.662479331729824 -0.15028932944752788 0 0 0
270 1 1 -2.1253137388345995 4.567053959717209 0.00519259285004829 0 0 0
271 1 2 -1.1797780622774356 6.120540668849454 0.6024336400278212 0 0 0
272 1 2 0.9821011150880152 0.7881702327114126 -2.6021997549718683 0 0 0
273 1 2 -2.311780557751832 -0.14591090788636848 5.584788047487465 0 0 0
274 1 2 -4.742679322010686 -3.211540728297521 -5.428202313732432 0 0 0
275 1 2 3.4554575924604656 -3.2820907519013067 4.544152123134571 0 0 0
276 1 2 0.2389841025912033 -2.6570756382490908 -2.2296645943660818 0 0 0
277 1 2 -0.7924229889047619 2.4072805045244574 -1.8859637176828803 0 0 0
278 1 2 -0.06644081506092059 4.76709069058765 -1.2771088566510225 0 0 0
279 1 2 -4.913772766735057 -5.125240223959454 1.1111917315156683 0 0 0
280 1 2 4.951601208278268 -0.8173627114572758 -1.3942111229900411 0 0 0
281 1 2 -4.342885566322966 2.4358782145952227 -3.7091562510598735 0 0 0
282 1 2 1.7573839634988413 2.622794638464151 -0.39347979723883947 0 0 0
283 1 2 -6.176375507410528 -0.7263970635059771 -1.424456831208729 0 0 0
284 1 2 2.541501616444604 0.5853823777300867 -0.05980365943609176 0 0 0
285 1 2 -0.2668549183455953 4.541237815893553 -2.890165792002604 0 0 0
286 1 2 -3.355166477968711 -2.1595046967503895 5.420362864978374 0 0 0
287 1 2 2.9148842182160486 2.577843012129294 -0.005133974543018274 0 0 0
288 1 2 -4.010420077216216 -5.875502912510449 -0.3574951313063982 0 0 0
289 1 2 2.144996171163835 -2.0252736104754305 -3.169337754321474 0 0 0
290 1 2 -0.6642257628614066 5.068459375969742 0.22873672077580096 0 0 0
291 1 2 2.8920499683659533 6.6429910295500925 -1.9878620556893691 0 0 0
292 1 2 0.0036320264794972882 3.4694904234905297 1.0326293507538042 0 0 0
293 1 2 -0.9780312556071508 -5.033304087944855 4.7930961603615945 0 0 0
294 1 2 0.3915441616894597 5.246530701734828 1.6976297851141906 0 0 0
295 1 2 3.132673689695354 -1.4681801692886003 -4.322769534529344 0 0 0
296 1 2 3.446488476919143 -1.726531274630397 -5.906854047909121 0 0 0
297 1 2 -4.3486033810030165 1.3272587271195535 -0.11893817519274336 0 0 0
298 1 2 4.17246373997719 -1.5734602946343412 2.1694165674171337 0 0 0
299 1 2 0.7069571790332934 -4.2604924072333965 3.2778783557998814 0 0 0
300 1 2 2.574677430986954 -4.712004043026735 -2.3480933480556017 0 0 0
301 1 2 -3.59997143754266 2.0445779578049 -4.473727777343497 0 0 0
302 1 1 2.931881834283132 -0.605499477386814 -5.914883669799923 0 0 0
303 1 1 3.2031451829366104 2.074668397776436 -2.172335935387825 0 0 0
304 1 1 -0.3006251086552537 -6.461781860813819 -0.3867666469410361 0 0 0
305 1 1 -6.626843205473822 -2.151358635506246 5.751361085358778 0 0 0
306 1 1 0.14643500286218913 -0.7851197149736346 5.923869385747867 0 0 0
307 1 1 -1.4780247147127734 -3.2439091561930478 -0.08128883044362335 0 0 0
308 1 1 -6.176846587528461 1.0356263070790162 -1.6856212908974288 0 0 0
309 1 1 -3.46380403953697 -1.519166180433286 -0.046712478203738805 0 0 0
310 1 1 -0.3023779312730821 -1.5146145778813356 4.548372140095178 0 0 0
311 1 1 -3.039976414225352 -1.7267032154773627 7.264391002682352 0 0 0
312 1 1 -2.9824654404646687 -1.241727923176084 5.311881353273135 0 0 0
313 1 1 -0.09846042756245961 6.721218645653895 -2.8604857102975787 0 0 0
314 1 1 -0.9413324484470026 0.4393448597232909 -1.1187423231089608 0 0 0
315 1 1 -5.041306285300832 -2.7657012682907305 4.362819347774513 0 0 0
316 1 1 0.9256831827120456 -5.6050213304476415 -3.3633877089232147 0 0 0
317 1 1 -0.27092047385031737 3.2118857573800947 -2.6535171656928087 0 0 0
318 1 1 2.2429888161762683 -2.052569704170636 -4.002361849674566 0 0 0
319 1 1 4.424608746218831 -0.08104731972142559 0.7758384949168998 0 0 0
320 1 1 -2.4754812318194768 0.5069748398960909 -2.741687865431215 0 0 0
321 1 1 4.712246196868511 0.9990421439930478 1.8195128318055436 0 0 0
322 1 1 4.734652003441057 1.88194915824104 3.982637992234217 0 0 0
323 1 1 6.015734243764916 -1.056541370159939 -1.3520670415115938 0 0 0
324 1 1 -6.324338328952879 -3.5354411841585254 -0.7385210433721642 0 0 0
325 1 1 6.147357495559032 -0.7020813077200712 -5.0928295101568875 0 0 0
326 1 1 -5.552623055049008 0.01551965338571561 -0.9713760272287189 0 0 0
327 1 1 1.3749963674349464 3.151144596567521 1.8471283528900873 0 0 0
328 1 1 -3.192461942112246 0.2511362763734021 2.7075436795929217 0 0 0
329 1 1 2.7193566935532227 4.604133101145635 4.140008427289032 0 0 0
330 1 1 2.76422968396777 -2.2678090148165735 1.7132594625315145 0 0 0
331 1 1 -0.3588099993488959 -3.1040891392021983 0.2983619049282001 0 0 0
332 1 1 -5.057970478332385 -6.139050162179934 1.4403034018000838 0 0 0
333 1 1 -1.1728360472543633 1.6358883060965224 5.497148032843096 0 0 0
334 1 1 -3.5472266887192387 -0.9803050141682748 1.9911778890007636 0 0 0
335 1 1 -2.5639008274868877 -0.9234710610334056 -2.7430381663822963 0 0 0
336 1 1 0.8101491650404118 5.577360607239377 -1.8682590069424008 0 0 0
337 1 1 0.4133962586010489 0.36006460518352784 -3.2575094575247125 0 0 0
338 1 1 -2.35174305153186 4.0368515376537655 -0.6126863325045812 0 0 0
339 1 1 0.7732107038164704 -0.7633988636441749 6.877612729713009 0 0 0
340 1 1 -5.417784529798446 1.6035853327354392 -2.0697734004576422 0 0 0
341 1 1 4.357244456423392 1.800860929384984 0.555335280272265 0 0 0
342 1 1 -1.6540901912896822 -0.4489614379003604 -5.186903681152665 0 0 0
343 1 1 -3.5986349414528926 -4.690126444210365 -0.3754723507322389 0 0 0
344 1 1 -4.05875075558318 -6.35445754661982 0.7180492535471658 0 0 0
345 1 1 -3.763673129902864 1.7289834905126014 3.428864991859653 0 0 0
346 1 1 -1.93551683855662 -1.2556529746184923 5.5823509211023215 0 0 0
347 1 1 0.8852167616265069 -4.701084252535658 -0.7814097253855744 0 0 0
348 1 1 2.1807037660523214 -4.225026864131407 0.600111789577841 0 0 0
349 1 1 1.821967384391345 4.063179517521959 -1.7695938946361158 0 0 0
350 1 1 -3.4652869991747632 1.9182174358853483 -4.777030229170742 0 0 0
351 1 1 2.6843428945631964 -0.2892208522218769 -3.121783819551641 0 0 0
352 1 1 -2.0231599291432487 -3.238110946993388 -2.169453527217198 0 0 0
353 1 1 1.0730612434693696 2.387599627790845 -5.698012407345099 0 0 0
354 1 1 3.229469226703043 3.922657441340329 -1.6520623855096934 0 0 0
355 1 1 -0.09395684157205468 -0.41219991159944414 -0.459064444380745 0 0 0
356 1 1 4.870197398021189 2.27566343510186 -0.4919972499045834 0 0 0
357 1 1 -1.99468751301937 1.489838944973836 4.913725326011642 0 0 0
358 1 1 -0.7211989970029176 -3.9710071067333614 1.2612689806960031 0 0 0
359 1 1 2.086179953988531 -5.526613576451487 -2.6147546372255923 0 0 0
360 1 1 -3.8193852665718335 -2.177445812922278 -0.6929493710236173 0 0 0
361 1 1 2.859342180987063 -5.437637330366347 -3.008025192381188 0 0 0
362 1 1 2.1192199068210864 5.288317916593617 1.6894641539494966 0 0 0
363 1 1 2.770925250685738 -1.7275212021109951 2.442501514609265 0 0 0
364 1 1 -5.356646645437064 -1.368773190523952 3.646627919280379 0 0 0
365 1 1 -4.416329777506329 -4.868081249319064 0.44118097926973093 0 0 0
366 1 1 -2.7379459964343487 1.095008812728067 -0.04929498303771158 0 0 0
367 1 1 1.1941595638657982 1.6464481702332747 -2.2802482394154326 0 0 0
368 1 1 3.3207465287091686 4.572403878568091 3.822050039304092 0 0 0
369 1 1 -1.7476197977315402 -2.9996846707521745 5.726352190981599 0 0 0
370 1 1 -1.665031003253875 2.2451362388103093 1.3058246483075646 0 0 0
371 1 1 -2.6816389061502175 3.2490908781784125 -5.792926945740304 0 0 0
372 1 1 -5.714086181948858 -5.332454451876737 3.1706409992792506 0 0 0
373 1 1 1.1354765923874022 -4.626926856435865 2.470472130508462 0 0 0
374 1 1 -2.693439021628776 0.3400879516580645 4.594676175573275 0 0 0
375 1 1 0.07218412639805388 -3.785733968855307 2.0495572169717877 0 0 0
376 1 1 7.597673158803642 -2.648954117505302 -0.985990763598312 0 0 0
377 1 1 0.924424794238898 1.3671712655913122 -5.482334581399587 0 0 0
378 1 1 2.81906578514582 -4.495245923956917 -3.908556924106693 0 0 0
379 1 1 2.538617036119529 2.035093777268308 0.6552743472427789 0 0 0
380 1 1 4.397393842772312 5.010570837466192 1.6931321266101431 0 0 0
381 1 1 -3.4283472702682114 -0.798634779265515 3.170557983216776 0 0 0
382 1 1 -6.285855249528387 1.280701132979539 -1.4633634633895167 0 0 0
383 1 1 1.7290188767175476 1.512174386708883 3.842461556987407 0 0 0
384 1 1 7.244820765867368 2.7508002625743364 3.610509921123076 0 0 0
385 1 1 1.1891932317047564 1.4296466439136708 4.874391933891351 0 0 0
386 1 1 -4.159848438565259 -0.4049678945179712 4.576232392599415 0 0 0
387 1 1 -6.255513776572321 0.38254177441415943 0.15318333868948486 0 0 0
388 1 1 -2.5269663949377965 2.8344644277190034 2.407150666523356 0 0 0
389 1 1 1.8483647643001189 2.867521790456764 -4.265792611823901 0 0 0
390 1 1 -0.5146383683544289 -2.742355808898521 -2.771982470143863 0 0 0
391 1 1 -3.8172593954657823 2.167789204963265 2.252640864808744 0 0 0
392 1 1 -2.3626003829966398 -5.933534790501204 1.2716598650519664 0 0 0
393 1 1 -1.7656594663630143 2.4185719619220643 -2.7693527838045124 0 0 0
394 1 1 -4.08624386539871 -4.519599095591867 1.5854641386428003 0 0 0
395 1 1 -0.8673888380514173 0.34749880770052305 1.2073014224490044 0 0 0
396 1 1 2.662479106946978 1.467739232767333 4.669627054926673 0 0 0
397 1 1 -2.767367513676766 -3.4599638663726395 -4.664449831556097 0 0 0
398 1 1 -3.0519291222160128 4.050619922480683 -1.6796683417347122 0 0 0
399 1 1 -0.8666520124513578 -1.5033559278096336 -0.4695374238869139 0 0 0
400 1 1 -0.9680080459804086 0.5345630693747125 2.668461334559072 0 0 0
401 1 1 3.359297103284329 -0.7527729613611887 -4.862186787730373 0 0 0
402 1 1 2.4339243454849444 3.429304361622739 -0.7003542353490688 0 0 0
403 1 1 2.7683191977409574 -1.456654151415146 -5.445398187017812 0 0 0
404 1 1 2.3939885634027034 -3.329445283047562 -3.6783472601484144 0 0 0
405 1 1 3.870329141109356 2.965044380800083 -2.3885088534676098 0 0 0
406 1 1 0.814459747577443 -1.417384014400616 -5.0029772261431065 0 0 0
407 1 1 3.3420095919529595 -4.077272588066848 -2.3803728780820688 0 0 0
408 1 1 -5.380837609005297 -5.796538560743692 2.522379393979338 0 0 0
409 1 1 -4.0151500298866765 0.01566951719705874 2.025087824372632 0 0 0
410 1 1 -3.715470503151184 -0.2687924165775296 7.815123693140216 0 0 0
411 1 1 3.972735121344964 -1.9215769493887416 2.069583970411966 0 0 0
412 1 1 -3.9140419589036255 3.4181807327879943 -2.7374241499812655 0 0 0
413 1 1 -0.989665042325426 6.366807733522423 -0.7309136520679798 0 0 0
414 1 1 3.2169575021209056 -4.22335918395972 -3.481664088217135 0 0 0
415 1 1 -2.8715857782150627 4.737246839012669 -4.034289264785061 0 0 0
416 1 1 2.161458066941255 1.4745032221529009 4.904109321998634 0 0 0
417 1 1 -2.606151675154174 -2.433892918805036 -1.1528131182498975 0 0 0
418 1 1 -5.368294076312871 -0.9843755998894138 5.378120750710251 0 0 0
419 1 1 -4.523056298500933 -1.29742257216275 1.087313845465628 0 0 0
420 1 1 -2.797742988399252 2.7384965268425727 -4.481397958069167 0 0 0
421 1 1 -0.25185023906182313 -2.217715757638292 2.290743643993936 0 0 0