LAMMPS data file via write_data, version 3 Mar 2020, timestep = 1000000

1000 atoms
2 atom types
1297 bonds
1 bond types

-3.6189999999999998e+01 3.6189999999999998e+01 xlo xhi
-3.6189999999999998e+01 3.6189999999999998e+01 ylo yhi
-3.6189999999999998e+01 3.6189999999999998e+01 zlo zhi

Masses

1 1
2 1

PairIJ Coeffs # lj/cut

1 1 1 1 1.12
1 2 1 1 1.12
2 2 1 1 1.12

Bond Coeffs # harmonic

1 2.5 1

Atoms # bond

718 1 1 2.7697066439402831e+00 -3.0831883796393940e+00 -6.5121729699696527e+00 0 0 0
662 1 1 7.0531104436524239e-01 -1.2349016851313765e+00 -5.4246260517861833e+00 0 0 0
166 1 2 1.8316801446427189e+00 -3.0166967705409502e+00 -6.0201160946550862e+00 0 0 0
500 1 1 2.4949995469643671e+00 -3.7902861557607692e+00 -6.0813196953699915e+00 0 0 0
752 1 1 2.6662053307430851e+00 -2.1463376296330128e+00 -6.3035856716899303e+00 0 0 0
302 1 1 2.9318818342831316e+00 -6.0549947738681398e-01 -5.9148836697999227e+00 0 0 0
397 1 1 -2.7673675136767661e+00 -3.4599638663726395e+00 -4.6644498315560980e+00 0 0 0
112 1 2 -2.8114433157625438e+00 -2.7270384029428323e+00 -5.0599678638211065e+00 0 0 0
813 1 1 1.2707169802689193e+00 -2.1094498509808117e+00 -6.1075872508191740e+00 0 0 0
296 1 2 3.4464884769191428e+00 -1.7265312746303969e+00 -5.9068540479091212e+00 0 0 0
438 1 1 2.4463829074878394e+00 -1.7779229740527720e+00 -5.5984915091986096e+00 0 0 0
100 1 2 1.2914902820706060e+00 -1.0389400671089757e+00 -6.1278392297318307e+00 0 0 0
979 1 1 -1.1597840323614976e+00 -1.2188308444419200e+00 -5.5090352171606876e+00 0 0 0
342 1 1 -1.6540901912896822e+00 -4.4896143790036036e-01 -5.1869036811526650e+00 0 0 0
465 1 1 2.1118139872185373e+00 -7.5489460141942388e-01 -6.4888903169418635e+00 0 0 0
534 1 1 3.1612732195075437e+00 -4.3712498912910436e-01 -6.5689355102368792e+00 0 0 0
814 1 1 4.0611691994638814e+00 -7.5782920304022083e-01 -4.8340132477878965e+00 0 0 0
571 1 1 5.3751894673802472e+00 -1.4367600491373202e+00 -4.8291801998982740e+00 0 0 0
898 1 1 -8.6086168923518247e-01 5.0763705393413716e-01 -6.7173636970173050e+00 0 0 0
43 1 2 1.9613568111917731e-01 1.0284005018963391e+00 -6.3093392617110364e+00 0 0 0
377 1 1 9.2442479423889812e-01 1.3671712655913122e+00 -5.4823345813995870e+00 0 0 0
185 1 2 -3.6435062594880439e+00 2.8752126218704710e+00 -5.4326356780050800e+00 0 0 0
371 1 1 -2.6816389061502179e+00 3.2490908781784125e+00 -5.7929269457403034e+00 0 0 0
497 1 1 -1.7301001266189637e+00 2.8418667627611183e+00 -5.9036667189324827e+00 0 0 0
788 1 1 3.0319204799145867e+00 -4.7166209649216757e+00 -4.6355366399198923e+00 0 0 0
726 1 1 -3.5187996984359500e+00 -3.5404524782654492e+00 -3.7429844631922409e+00 0 0 0
805 1 1 -3.4325521756769244e+00 -4.2738813146524022e+00 -4.7337052024645203e+00 0 0 0
610 1 1 1.3530314291374350e+00 -3.0756008463232587e+00 -5.1347107314558675e+00 0 0 0
791 1 1 2.4970594295436292e+00 -3.2679991677193621e+00 -5.3954170541039828e+00 0 0 0
87 1 2 3.0417714011376837e+00 -3.7081721288580263e+00 -4.5239465828569401e+00 0 0 0
996 1 1 3.6164505227074919e+00 -3.0923380921320227e+00 -5.3652972617263170e+00 0 0 0
533 1 1 -3.9399491180806177e+00 -3.2830143332539659e+00 -4.7723721722299537e+00 0 0 0
274 1 2 -4.7426793220106864e+00 -3.2115407282975212e+00 -5.4282023137324318e+00 0 0 0
689 1 1 -3.6788558681044061e+00 -2.9233333385200631e+00 -5.6518134099599466e+00 0 0 0
564 1 1 -2.4549174853657107e+00 -2.8836807307790124e+00 -6.1378906488209912e+00 0 0 0
970 1 1 3.4163823124005415e+00 -1.8889920747639075e+00 -5.7720555680093444e+00 0 0 0
731 1 1 -2.5512362116231917e+00 -1.8232071595174464e+00 -5.6458456342588930e+00 0 0 0
659 1 1 -2.0492399763786171e+00 -1.7191358318295458e+00 -5.3184357251414003e+00 0 0 0
874 1 1 -1.4215046811809022e+00 -2.7925250648842126e+00 -6.3686797766944485e+00 0 0 0
41 1 2 -1.1610761881720244e+00 -2.1683368543937855e+00 -5.6603956302600436e+00 0 0 0
215 1 2 1.0624945649741522e+00 -2.2918338942267646e+00 -5.4560984495285982e+00 0 0 0
403 1 1 2.7683191977409574e+00 -1.4566541514151461e+00 -5.4453981870178119e+00 0 0 0
634 1 1 -3.8224195986928731e+00 -1.2156640557062801e+00 -5.2647308355275744e+00 0 0 0
762 1 1 -8.9655578903009536e-01 -2.8195897932827720e+00 -4.8214374442589669e+00 0 0 0
406 1 1 8.1445974757744311e-01 -1.4173840144006160e+00 -5.0029772261431065e+00 0 0 0
755 1 1 6.4897628579062050e-01 -5.4446095385077731e-01 -5.3235287411296346e+00 0 0 0
401 1 1 3.3592971032843288e+00 -7.5277296136118865e-01 -4.8621867877303728e+00 0 0 0
244 1 2 3.8650456133421049e+00 -8.0724957973040279e-01 -5.7869997043692525e+00 0 0 0
70 1 2 5.1811751272188689e+00 -9.5631076657913816e-01 -4.9693572529658159e+00 0 0 0
103 1 2 -1.2689360450591078e+00 7.0721272777495930e-02 -5.9804092619990961e+00 0 0 0
154 1 2 1.5504335364140869e+00 -8.0473458245500484e-01 -5.2510232801795826e+00 0 0 0
10 1 2 4.8076241408046698e+00 -7.1049460871193171e-01 -4.7398888607958130e+00 0 0 0
800 1 1 -1.2858416065900207e+00 6.9438142364817235e-01 -5.2990040528221778e+00 0 0 0
729 1 1 2.2543497238186143e+00 -2.2784571488667857e-01 -4.8784152533959713e+00 0 0 0
460 1 1 4.3440185685847572e+00 2.7219383554988108e-01 -4.5257968941951026e+00 0 0 0
975 1 1 -6.1737783091739107e-01 4.3592590714067536e-01 -6.5958608847064895e+00 0 0 0
389 1 1 1.8483647643001189e+00 2.8675217904567640e+00 -4.2657926118239011e+00 0 0 0
350 1 1 -3.4652869991747632e+00 1.9182174358853483e+00 -4.7770302291707418e+00 0 0 0
565 1 1 -6.2717108287976586e-01 1.7324045964042014e+00 -6.2776508647790141e+00 0 0 0
353 1 1 1.0730612434693696e+00 2.3875996277908449e+00 -5.6980124073450993e+00 0 0 0
864 1 1 -3.9269356079838671e+00 3.2202130342395447e+00 -4.6156956556102715e+00 0 0 0
141 1 2 -3.4682337574160820e+00 3.1185195529023297e+00 -5.0137824158183122e+00 0 0 0
237 1 2 -1.1658529375081204e+00 2.3319850546155330e+00 -5.6225923913194595e+00 0 0 0
117 1 2 1.3839875296079138e+00 2.3788708647069643e+00 -4.7067031538252699e+00 0 0 0
925 1 1 -3.3616504915248533e+00 3.8182024469500040e+00 -5.6808830080658597e+00 0 0 0
678 1 1 -8.2870175010374936e-01 3.1484403976149715e+00 -5.8520352521591672e+00 0 0 0
437 1 1 -1.2744322402170145e+00 5.4719567395332787e+00 -4.5064276626360824e+00 0 0 0
485 1 1 8.1248542417205985e-02 5.3958634139126778e+00 -5.0397630062774352e+00 0 0 0
79 1 2 1.5915202526380825e+00 -4.9893135748935258e+00 -4.1622947220158535e+00 0 0 0
754 1 1 2.0989199637760008e+00 -5.7848438940858307e+00 -4.6116849006335627e+00 0 0 0
769 1 1 1.4953634931002857e+00 -4.1820686620883176e+00 -4.5994352452972764e+00 0 0 0
49 1 2 3.0152318172811960e+00 -5.5239495050028085e+00 -3.9848681550497136e+00 0 0 0
676 1 1 3.8742346667702949e+00 -5.2073010119517305e+00 -3.4869786501102382e+00 0 0 0
530 1 1 4.6665483139523589e+00 -4.6099420251809242e+00 -3.9627094796468119e+00 0 0 0
47 1 2 -4.5472007320553338e+00 -3.4131455821520222e+00 -3.6827821738199442e+00 0 0 0
994 1 1 -5.1293955076136770e+00 -3.0098677275595476e+00 -4.5020441432035359e+00 0 0 0
378 1 1 2.8190657851458201e+00 -4.4952459239569169e+00 -3.9085569241066933e+00 0 0 0
148 1 2 4.5142339036339525e+00 -3.5998036768748940e+00 -4.3501476428566939e+00 0 0 0
563 1 1 5.1536964644343541e+00 -4.3570629120678506e+00 -4.1210259909966096e+00 0 0 0
606 1 1 5.4659938495617784e+00 -3.4214327174086798e+00 -3.9512121357969825e+00 0 0 0
493 1 1 -4.9078928282525291e+00 -2.5057934786686089e+00 -4.3254929458316358e+00 0 0 0
982 1 1 -5.3917125175528016e+00 -2.5853714922304487e+00 -5.2859425797948427e+00 0 0 0
656 1 1 -4.8701272773732649e+00 -2.4576183800016529e+00 -5.8926454194415028e+00 0 0 0
973 1 1 1.1303222041931207e+00 -3.1145156262642097e+00 -4.7147704468823965e+00 0 0 0
622 1 1 3.7076036239047303e+00 -2.5417695842716843e+00 -6.4481367417302051e+00 0 0 0
56 1 2 6.3769880118773452e+00 -2.8056097504671600e+00 -3.8034483532811985e+00 0 0 0
106 1 2 -2.4786874972228374e+00 -2.0142973976833192e+00 -4.5737733383856547e+00 0 0 0
190 1 2 -4.9896605376198794e-01 -2.7006210648937552e+00 -3.9194802786826131e+00 0 0 0
778 1 1 -9.0188967201800652e-01 -1.8655360702432549e+00 -3.7915039235071046e+00 0 0 0
116 1 2 4.0866096417997415e+00 -2.3379716912606714e+00 -4.9657346139454663e+00 0 0 0
877 1 1 5.2415174935390212e+00 -1.7579630754517754e+00 -4.5615240820694636e+00 0 0 0
570 1 1 6.9682297336308947e+00 -2.5356458774320214e+00 -4.4355201421255188e+00 0 0 0
733 1 1 8.1630019012501833e+00 -2.6658166552119722e+00 -2.5751791189615254e+00 0 0 0
26 1 2 -5.3595811797037038e+00 -1.6368476047271245e+00 -4.1215249860311189e+00 0 0 0
574 1 1 -4.8773634848139515e+00 -1.5516806707378570e+00 -5.0223666243647811e+00 0 0 0
916 1 1 -3.3472790269461106e+00 -1.7425131737347397e+00 -4.6914544400703964e+00 0 0 0
539 1 1 -2.7078583120915565e+00 -1.2895762729566214e+00 -4.1092851351268944e+00 0 0 0
67 1 2 2.1764483855602328e+00 -1.4939852450106208e+00 -4.6072731775253706e+00 0 0 0
295 1 2 3.1326736896953542e+00 -1.4681801692886003e+00 -4.3227695345293444e+00 0 0 0
618 1 1 -4.9794012519582758e+00 -1.8274134155213120e+00 -3.0046895289551383e+00 0 0 0
505 1 1 -5.0331562938812144e+00 -8.6703099024159003e-01 -3.7266989560013433e+00 0 0 0
258 1 2 -3.1450946593501534e+00 -8.6291253676876456e-01 -4.9653155948842347e+00 0 0 0
907 1 1 1.5728606566157726e+00 -1.8890618037467935e-01 -4.5581270603120192e+00 0 0 0
955 1 1 5.8618695337376794e+00 -7.5738937247354954e-01 -4.6851571885175378e+00 0 0 0
325 1 1 6.1473574955590333e+00 -7.0208130772007116e-01 -5.0928295101568866e+00 0 0 0
553 1 1 5.3312937631581541e+00 -1.2134684292488447e+00 -4.0683222029721380e+00 0 0 0
786 1 1 -4.0044978822259232e+00 1.3296910847859095e-01 -3.7043330288092213e+00 0 0 0
40 1 2 -1.3935741635267460e+00 4.8167735542989643e-01 -4.2145172854265933e+00 0 0 0
942 1 1 3.5674742936617680e+00 7.9835341828101403e-01 -4.2331299366341284e+00 0 0 0
526 1 1 -3.2618001630914670e+00 1.2811440439068100e-01 -4.9841660272985182e+00 0 0 0
992 1 1 -2.6463834551325256e+00 6.1426972648017764e-01 -4.6239269381299239e+00 0 0 0
173 1 2 1.6168647929055233e+00 1.9992591549626326e+00 -4.7765518157965614e+00 0 0 0
450 1 1 2.3770796380069497e+00 1.5945503545723818e+00 -4.3728875961509006e+00 0 0 0
128 1 2 2.7567818011937000e+00 6.2958728868718028e-01 -4.6204819433874231e+00 0 0 0
691 1 1 -4.9752218850222505e+00 1.7669541405589935e+00 -4.0224714224813622e+00 0 0 0
155 1 2 -3.4185408981419059e+00 1.1027015602159271e+00 -4.8743971432213504e+00 0 0 0
435 1 1 -1.5807761134828022e-01 2.4592922248058713e+00 -5.9007680637034596e+00 0 0 0
806 1 1 1.0729627085463975e+00 2.5656061351845443e+00 -5.5356004969328581e+00 0 0 0
281 1 2 -4.3428855663229662e+00 2.4358782145952227e+00 -3.7091562510598735e+00 0 0 0
301 1 2 -3.5999714375426599e+00 2.0445779578049001e+00 -4.4737277773434982e+00 0 0 0
420 1 1 -2.7977429883992522e+00 2.7384965268425732e+00 -4.4813979580691665e+00 0 0 0
818 1 1 2.1288846530439964e+00 2.6822167354923154e+00 -4.5452608032487385e+00 0 0 0
527 1 1 -3.9846844215659862e+00 3.3032984326339925e+00 -4.1763846533682054e+00 0 0 0
721 1 1 -2.5543635437599796e+00 2.4889449553451843e+00 -4.5796217498666483e+00 0 0 0
226 1 2 -4.2775775818396800e-01 5.0718458158492767e+00 -4.1413135427160261e+00 0 0 0
90 1 2 -1.8465484917535574e-01 5.2379925891089769e+00 -4.4366644714775738e+00 0 0 0
619 1 1 7.1208102429550602e-01 5.2745164736545735e+00 -4.2792854346277585e+00 0 0 0
728 1 1 7.1171740248200055e-01 5.0889417358597724e+00 -5.4524950843269222e+00 0 0 0
796 1 1 -1.1317449257939218e+00 5.8973148178030899e+00 -4.4010601850173137e+00 0 0 0
313 1 1 -9.8460427562459624e-02 6.7212186456538952e+00 -2.8604857102975787e+00 0 0 0
446 1 1 6.8166735952363500e-01 5.7416588537771371e+00 -3.5567302460955394e+00 0 0 0
821 1 1 -1.0622721186992852e+00 6.6671681018081239e+00 -3.6435548233054931e+00 0 0 0
655 1 1 7.7413373662078833e-01 -5.6493260113093218e+00 -4.1386685863848713e+00 0 0 0
316 1 1 9.2568318271204553e-01 -5.6050213304476424e+00 -3.3633877089232147e+00 0 0 0
361 1 1 2.8593421809870629e+00 -5.4376373303663472e+00 -3.0080251923811874e+00 0 0 0
232 1 2 4.8995450377851526e+00 -4.6705998860762907e+00 -3.0869377380431642e+00 0 0 0
92 1 2 -4.3137061994350274e+00 -2.9293500360290490e+00 -5.1630308200963642e+00 0 0 0
607 1 1 -3.4519522097715436e+00 -3.6192222206908631e+00 -3.6006615952913386e+00 0 0 0
591 1 1 -2.7183744714071434e+00 -3.2750558251089141e+00 -3.0904838509400410e+00 0 0 0
881 1 1 2.0423430957997724e+00 -3.1997581069628414e+00 -3.6205774512956501e+00 0 0 0
767 1 1 9.2423972584637215e-01 -2.8932129901843315e+00 -3.0078715428087839e+00 0 0 0
855 1 1 3.8025609526568820e+00 -2.8665680072985440e+00 -3.9651959719950169e+00 0 0 0
918 1 1 5.1926479350732366e+00 -3.7985079113619760e+00 -2.7966604698716391e+00 0 0 0
276 1 2 2.3898410259120331e-01 -2.6570756382490908e+00 -2.2296645943660818e+00 0 0 0
905 1 1 7.0741156346302612e+00 -2.6323486602097801e+00 -3.0077089363166771e+00 0 0 0
507 1 1 7.7331368889579144e+00 -3.1161156212427139e+00 -1.8044310652895386e+00 0 0 0
429 1 1 -2.0766919297172195e+00 -2.2698685123520286e+00 -3.7804526409720944e+00 0 0 0
589 1 1 -2.0241176844907409e+00 -2.1897532591379072e+00 -3.4842764494258041e+00 0 0 0
138 1 2 -2.6891624053773749e-01 -1.2433915212290387e+00 -3.3225817530283819e+00 0 0 0
390 1 1 -5.1463836835442889e-01 -2.7423558088985209e+00 -2.7719824701438629e+00 0 0 0
318 1 1 2.2429888161762683e+00 -2.0525697041706357e+00 -4.0023618496745659e+00 0 0 0
461 1 1 4.0091500920006000e+00 -1.7439595736169595e+00 -4.2002730771507428e+00 0 0 0
880 1 1 4.8449331692881890e+00 -2.4601160494922700e+00 -3.7325972293672041e+00 0 0 0
623 1 1 6.0817650341243228e+00 -2.0180537376396925e+00 -3.5467169191440258e+00 0 0 0
819 1 1 -4.0699366467845746e+00 -2.0970283470675612e+00 -3.3735176628090375e+00 0 0 0
93 1 2 -1.6921675357118398e+00 -1.3970850962946724e+00 -3.8851572036595585e+00 0 0 0
909 1 1 -8.5776727292756894e-01 -1.6302715547946676e+00 -3.7969944406632705e+00 0 0 0
472 1 1 3.9870125047904971e-02 -4.9280016870204346e-01 -3.9507832174059012e+00 0 0 0
699 1 1 2.7857623477495173e+00 -1.8932095704539669e+00 -3.8749682940259773e+00 0 0 0
892 1 1 2.5699431886787778e+00 -1.9230058014369753e+00 -3.9551481817137883e+00 0 0 0
645 1 1 2.5426425474733940e+00 -2.1647986779322124e+00 -4.1323563262880567e+00 0 0 0
976 1 1 3.8689013743897802e+00 -1.7307768986617584e+00 -4.1186028545558404e+00 0 0 0
83 1 2 6.7328139942785379e+00 -1.3881335194654405e+00 -4.6565667090935108e+00 0 0 0
599 1 1 4.6685409762260504e+00 -7.2984109332079528e-01 -4.0776154602968138e+00 0 0 0
868 1 1 -4.9910901136512988e+00 -1.0297578408419219e+00 -3.5465448012339156e+00 0 0 0
115 1 2 -3.1550455623163320e+00 -2.5709788747357920e-01 -3.0773135628266508e+00 0 0 0
927 1 1 1.2764981658796217e+00 2.9886431502987792e-01 -4.5288687412761881e+00 0 0 0
935 1 1 2.7036268959574596e+00 -5.4180278638088708e-01 -3.2420007063205385e+00 0 0 0
451 1 1 -3.8850112186840979e+00 4.4494515372222487e-02 -3.7831796399281128e+00 0 0 0
219 1 2 -4.7935546389310781e+00 -1.7213764952090330e-01 -3.1916288147544543e+00 0 0 0
837 1 1 -4.6775651525297612e-01 6.6402289253106617e-01 -3.6263671259610817e+00 0 0 0
351 1 1 2.6843428945631964e+00 -2.8922085222187693e-01 -3.1217838195516410e+00 0 0 0
51 1 2 -4.3759398999779160e+00 9.6901591771549656e-01 -3.8041364753045475e+00 0 0 0
716 1 1 -1.7046726784411097e+00 1.6271730658664230e+00 -4.3376973471638465e+00 0 0 0
176 1 2 -2.5750581503943093e+00 1.5938360115255910e+00 -4.1498521174916352e+00 0 0 0
888 1 1 -1.8960323254970128e+00 1.7698643037431845e+00 -5.0598872764376628e+00 0 0 0
947 1 1 3.0589069803001530e+00 1.3614999077206031e+00 -4.0020153009156738e+00 0 0 0
643 1 1 -4.5275272751038775e+00 2.3918665086726265e+00 -4.1897150003560721e+00 0 0 0
247 1 2 2.3962123425728730e+00 2.0401365100239532e+00 -3.7912983651854271e+00 0 0 0
980 1 1 -5.2390401283949481e+00 2.2919557583001584e+00 -3.2909486010363560e+00 0 0 0
134 1 2 -3.5081306422739922e+00 2.8732798893851816e+00 -3.6686342162213212e+00 0 0 0
424 1 1 -2.5126458955460138e+00 3.1969948388578695e+00 -3.3981948891121889e+00 0 0 0
756 1 1 3.4160050111760887e-01 4.1001990855672759e+00 -3.5521191695321996e+00 0 0 0
986 1 1 -2.0347140778700861e+00 4.7317120691119356e+00 -3.6401397831609001e+00 0 0 0
798 1 1 -1.1151916785090914e+00 4.7979530145277289e+00 -4.5374597992349628e+00 0 0 0
913 1 1 3.6040954030829631e-02 6.9825253777297966e+00 -3.0753568632458030e+00 0 0 0
865 1 1 6.6122554280448709e-01 5.1466221442784779e+00 -3.3274318124261053e+00 0 0 0
161 1 2 1.5811781929071398e+00 5.4147331299843406e+00 -3.2269506820835416e+00 0 0 0
197 1 2 -7.1454692220215554e-01 7.4929916435285921e+00 -3.1488794908310109e+00 0 0 0
797 1 1 1.8239288847395638e-01 -5.5081648638668659e+00 -3.2052650226936832e+00 0 0 0
250 1 2 1.7794080646016366e+00 -5.6770278518544997e+00 -3.4880751731196247e+00 0 0 0
605 1 1 5.5493133578903553e-01 -3.5521818533161391e+00 -2.6042194556423199e+00 0 0 0
182 1 2 1.7568579760092773e+00 -3.3257934844770820e+00 -2.8749366979420845e+00 0 0 0
414 1 1 3.2169575021209056e+00 -4.2233591839597198e+00 -3.4816640882171348e+00 0 0 0
150 1 2 2.3807220482223364e+00 -3.9441700590657733e+00 -3.2805773567923491e+00 0 0 0
404 1 1 2.3939885634027034e+00 -3.3294452830475620e+00 -3.6783472601484140e+00 0 0 0
792 1 1 4.1285175852873133e+00 -3.7531662340937619e+00 -3.3406148707945738e+00 0 0 0
212 1 2 5.3782160108157981e+00 -3.0442746070340134e+00 -2.5738103691187209e+00 0 0 0
439 1 1 5.6490049025570315e+00 -3.8398093058354692e+00 -2.2211121798678870e+00 0 0 0
82 1 2 -1.7049568319196455e+00 -3.0720345704922760e+00 -3.3203642226196659e+00 0 0 0
978 1 1 -4.0324717535928278e-01 -2.1049869566242756e+00 -2.6655929498348656e+00 0 0 0
162 1 2 3.1692630128659802e+00 -3.0868200631675604e+00 -3.2346398945074073e+00 0 0 0
179 1 2 4.3969312102103579e+00 -2.7299421180627235e+00 -2.9744741950224536e+00 0 0 0
560 1 1 6.0675998317909476e+00 -2.8197254522445063e+00 -1.9867496943103471e+00 0 0 0
735 1 1 3.7548239018144711e+00 -2.1657168496129628e+00 -3.0568667122872353e+00 0 0 0
504 1 1 3.6750588021177535e+00 -2.0526348044246077e+00 -3.0135127436374725e+00 0 0 0
910 1 1 5.2213746950992297e+00 -1.9404801583995108e+00 -2.7147642667645648e+00 0 0 0
984 1 1 -4.6104947520932180e+00 -1.7538519433270954e+00 -2.6609474110727653e+00 0 0 0
763 1 1 -3.9150372638307895e+00 -8.4129590584627534e-01 -2.5578334823821502e+00 0 0 0
664 1 1 -8.2857353845181914e-01 -8.2336396086470476e-01 -4.0745915413113840e+00 0 0 0
289 1 2 2.1449961711638350e+00 -2.0252736104754305e+00 -3.1693377543214738e+00 0 0 0
6 1 2 4.6017685739764929e+00 -1.4615842922125506e+00 -3.5572412280358869e+00 0 0 0
14 1 2 -4.4030163068777650e+00 -1.1673895108707879e+00 -2.7581989368587263e+00 0 0 0
335 1 1 -2.5639008274868873e+00 -9.2347106103340570e-01 -2.7430381663822963e+00 0 0 0
27 1 2 3.4924091630282783e+00 -1.1212192075459324e+00 -3.1521186702146600e+00 0 0 0
55 1 1 4.5960959838312938e+00 1.4217114346717560e-01 -2.3007515014993118e+00 0 0 0
799 1 1 6.5546870185889539e+00 -1.0827188431180683e+00 -3.8872689182307432e+00 0 0 0
663 1 1 5.5430045535402543e+00 2.3297045979409192e-01 -2.9350301537985346e+00 0 0 0
463 1 1 -4.4226532109941266e+00 1.6654176805096743e-01 -2.2864546985265584e+00 0 0 0
320 1 1 -2.4754812318194772e+00 5.0697483989609093e-01 -2.7416878654312149e+00 0 0 0
35 1 2 3.1521035662425767e-01 3.8493453362458829e-01 -4.1613579898886544e+00 0 0 0
137 1 2 1.6896731954424751e+00 3.2283806556601075e-01 -3.5641595782147224e+00 0 0 0
616 1 1 3.2150766933969690e+00 2.0887277665809442e-01 -2.8211347273168257e+00 0 0 0
101 1 2 6.1932836558775417e+00 -4.0978990415426031e-01 -3.2384967528094775e+00 0 0 0
580 1 1 -3.1158098342583083e+00 9.1591102522973566e-01 -3.4727645777082410e+00 0 0 0
367 1 1 1.1941595638657982e+00 1.6464481702332749e+00 -2.2802482394154326e+00 0 0 0
587 1 1 6.2110738187509638e+00 -1.6275153478071941e-01 -2.3418099468046680e+00 0 0 0
967 1 1 -3.8416032321757951e+00 1.8251038181709551e+00 -3.1967994175754204e+00 0 0 0
114 1 2 -2.8412751264566904e+00 2.0741527983791048e+00 -2.9723361159218955e+00 0 0 0
848 1 1 -1.2654863159606036e+00 1.8621029117354495e+00 -2.5137342566322776e+00 0 0 0
722 1 1 2.6045194176689663e+00 2.6440104100600585e+00 -2.7737968652802594e+00 0 0 0
393 1 1 -1.7656594663630145e+00 2.4185719619220643e+00 -2.7693527838045124e+00 0 0 0
738 1 1 -9.1126645422199171e-01 1.5926769542894437e+00 -2.6284222572063314e+00 0 0 0
815 1 1 -1.4635251211437017e-01 2.9084958126981362e+00 -2.7624917702694276e+00 0 0 0
317 1 1 -2.7092047385031737e-01 3.2118857573800947e+00 -2.6535171656928092e+00 0 0 0
127 1 2 -4.6440426445005462e-01 3.8068802056567614e+00 -3.1482681366272098e+00 0 0 0
638 1 1 2.8068341488069191e+00 2.7109654063671833e+00 -2.9361283875498629e+00 0 0 0
285 1 2 -2.6685491834559538e-01 4.5412378158935534e+00 -2.8901657920026036e+00 0 0 0
948 1 1 -2.8625204668095781e+00 4.8385506492294290e+00 -3.1649117444254533e+00 0 0 0
802 1 1 -1.8799526791073078e+00 4.7448710639612299e+00 -2.7285484493335002e+00 0 0 0
486 1 1 -1.7313901070028686e+00 5.4367583968796369e+00 -4.9651751883962065e+00 0 0 0
995 1 1 -1.1223501400100719e+00 5.3800384865038646e+00 -3.3009236064420961e+00 0 0 0
981 1 1 -1.3688076399981131e-01 4.2797602876465763e+00 -4.0558363923157001e+00 0 0 0
167 1 2 6.9426805277055559e-01 6.0844782280098126e+00 -2.8857116661264821e+00 0 0 0
744 1 1 1.9889327182647119e+00 4.4978920368225976e+00 -3.3803230049548687e+00 0 0 0
336 1 1 8.1014916504041190e-01 5.5773606072393767e+00 -1.8682590069424012e+00 0 0 0
879 1 1 1.5818672599158221e+00 6.3682978863606383e+00 -3.6837799379026133e+00 0 0 0
31 1 2 -8.8070827200169677e-01 6.5533353492999238e+00 -2.3451827019990503e+00 0 0 0
544 1 1 -1.1686559343479908e+00 8.2632149245880306e+00 -2.5560461579203984e+00 0 0 0
867 1 1 2.2367122396095560e+00 6.8979053263373595e+00 -2.9502693666941795e+00 0 0 0
951 1 1 -1.2224044494486379e-01 7.2950189930782896e+00 -2.1967387614750327e+00 0 0 0
915 1 1 -1.5093365745728480e+00 7.6312105007938547e+00 -2.0224254570891143e+00 0 0 0
44 1 2 -6.4438789326090284e-01 -6.6320057994992148e+00 -1.9940644033146258e+00 0 0 0
593 1 1 1.2850618529966520e-01 -7.2942922288431413e+00 -2.1909883040393185e+00 0 0 0
938 1 1 -4.1505945371471435e+00 -6.8446623665446600e+00 -1.4877594099034781e+00 0 0 0
789 1 1 -1.9654920964042910e-01 -7.4621027100419219e+00 -2.4011796114987773e+00 0 0 0
23 1 2 3.4076750837746522e-01 -6.4996061921703072e+00 -2.6566845060913367e+00 0 0 0
856 1 1 1.1900004264012669e+00 -6.3755004694727013e+00 -3.1395397635975937e+00 0 0 0
359 1 1 2.0861799539885308e+00 -5.5266135764514868e+00 -2.6147546372255923e+00 0 0 0
895 1 1 -2.9548457762023737e+00 -6.8006902738793302e+00 -1.5822038991044860e+00 0 0 0
737 1 1 -1.4525813761787756e+00 -5.3893157675782133e+00 -1.8267372945454836e+00 0 0 0
434 1 1 9.1754018455793029e-01 -3.3248455539639141e+00 -2.1594374130897234e+00 0 0 0
741 1 1 1.6152976223447200e+00 -5.1073584913053596e+00 -2.4813070893361355e+00 0 0 0
352 1 1 -2.0231599291432492e+00 -3.2381109469933880e+00 -2.1694535272171986e+00 0 0 0
832 1 1 5.9014604341798449e-01 -4.5038393993266466e+00 -1.4434379681041201e+00 0 0 0
175 1 2 1.3282849320500167e+00 -4.3073707502633312e+00 -2.2160648711208601e+00 0 0 0
407 1 1 3.3420095919529595e+00 -4.0772725880668483e+00 -2.3803728780820688e+00 0 0 0
727 1 1 1.9454761129621303e+00 -3.3736986660792323e+00 -2.5699686671056559e+00 0 0 0
595 1 1 5.3377518963851660e+00 -2.6749501192387637e+00 -1.7210368089331276e+00 0 0 0
376 1 1 7.5976731588036417e+00 -2.6489541175053022e+00 -9.8599076359831217e-01 0 0 0
254 1 2 -3.5276798766731154e+00 -1.9743660338532005e+00 -1.8163832566897173e+00 0 0 0
206 1 2 3.2825521213537892e+00 -2.2585491702903320e+00 -1.2157311752433786e+00 0 0 0
824 1 1 3.7521619119513092e+00 -2.5986126505371998e+00 -2.0070112145564587e+00 0 0 0
826 1 1 5.2029062151396248e+00 -1.1097114638196739e+00 -2.8159028551072742e+00 0 0 0
245 1 2 5.5835464293207471e+00 -1.8474408301003393e+00 -2.3644083671295588e+00 0 0 0
685 1 1 5.1633900304564548e+00 -2.3821845119873752e+00 -1.5177325468756369e+00 0 0 0
168 1 2 6.2971103559080657e+00 -2.0425386157932319e+00 -1.6344805408199656e+00 0 0 0
944 1 1 -5.2051967675620654e+00 -8.9885040292907536e-01 -2.3003807694763956e+00 0 0 0
707 1 1 -6.0770741026571349e+00 -3.0429563302062267e-02 -2.0739029594792848e+00 0 0 0
684 1 1 5.6404282297365196e+00 -1.4807621810894844e+00 -1.5740747084736963e+00 0 0 0
746 1 1 5.7601846896718625e+00 -1.1817817771933454e+00 -1.1479013885971074e+00 0 0 0
209 1 2 -6.5625340442578519e+00 1.3788234708600308e-01 -1.1277911834581760e+00 0 0 0
462 1 1 -3.2351416851488706e+00 -3.2132070056479173e-01 -2.7795530298161482e+00 0 0 0
494 1 1 -2.8001756278458672e+00 -1.2600641768682252e+00 -2.0873759257484386e+00 0 0 0
922 1 1 2.2102258632668739e+00 -1.3819880770436270e+00 -2.5091532127192693e+00 0 0 0
4 1 2 3.2163099372019182e+00 -9.4054769978612440e-01 -1.9530393508459609e+00 0 0 0
541 1 1 4.2454019617198764e+00 -9.6330233934197107e-01 -2.1683651196948350e+00 0 0 0
510 1 1 4.5806012507016174e+00 2.1806947789425912e-01 -1.2738886676536043e+00 0 0 0
308 1 1 -6.1768465875284608e+00 1.0356263070790162e+00 -1.6856212908974288e+00 0 0 0
382 1 1 -6.2858552495283870e+00 1.2807011329795390e+00 -1.4633634633895169e+00 0 0 0
473 1 1 -2.2356567851266633e+00 4.2184508474314075e-01 -2.3017134069126262e+00 0 0 0
337 1 1 4.1339625860104889e-01 3.6006460518352784e-01 -3.2575094575247125e+00 0 0 0
428 1 1 9.3924616987068310e-01 3.0009876345185517e-02 -2.9705075180072873e+00 0 0 0
572 1 1 3.0412328735891685e+00 1.0648720062061920e+00 -2.5890050884924452e+00 0 0 0
953 1 1 3.9643032526428481e+00 -6.1059411398140272e-02 -1.5896322855298155e+00 0 0 0
466 1 1 6.1837375084245974e+00 -2.6368065827142700e-01 -2.4564770739240376e+00 0 0 0
488 1 1 5.4164274913895669e+00 3.6992587649654624e-01 -2.3096937340607497e+00 0 0 0
869 1 1 -5.4137280203715727e+00 1.6113184226567596e+00 -1.8062255317529883e+00 0 0 0
340 1 1 -5.4177845297984462e+00 1.6035853327354392e+00 -2.0697734004576422e+00 0 0 0
911 1 1 -3.6905762240003694e+00 6.8003384622874818e-01 -2.6424713582145438e+00 0 0 0
217 1 2 -2.6176002738561013e+00 1.0895852341834993e+00 -1.7505901673205535e+00 0 0 0
552 1 1 -1.6569107575006481e+00 -7.9302905906944790e-02 -2.2062236508067810e+00 0 0 0
272 1 2 9.8210111508801534e-01 7.8817023271141273e-01 -2.6021997549718683e+00 0 0 0
705 1 1 -2.6443255780851715e+00 1.3853280368583425e+00 -2.6031244896151553e+00 0 0 0
894 1 1 -3.4371821553370538e+00 1.9711714123011568e+00 -1.4336946013821201e+00 0 0 0
99 1 2 -1.2316458631569593e+00 8.1578393987114484e-01 -2.5292648631310870e+00 0 0 0
196 1 2 2.0947169685811198e+00 2.1778262065995393e+00 -2.0854055899645316e+00 0 0 0
303 1 1 3.2031451829366104e+00 2.0746683977764357e+00 -2.1723359353878249e+00 0 0 0
845 1 1 4.6221129485235934e+00 1.6799541031351493e+00 -1.0759399927563691e+00 0 0 0
7 1 2 -8.7704900581836487e-01 2.4940103502331561e+00 -3.1940458938681422e+00 0 0 0
931 1 1 -9.7136522366717026e-01 1.5985449822978155e+00 -2.3797194655162532e+00 0 0 0
412 1 1 -3.9140419589036259e+00 3.4181807327879943e+00 -2.7374241499812659e+00 0 0 0
277 1 2 -7.9242298890476204e-01 2.4072805045244579e+00 -1.8859637176828803e+00 0 0 0
169 1 2 3.2292368723067417e+00 2.9676364657031886e+00 -1.9071667998835447e+00 0 0 0
558 1 1 4.2588834859081128e+00 3.1376722169147180e+00 -1.3757224625376814e+00 0 0 0
263 1 2 -2.4622666968972218e+00 4.0893328197298882e+00 -2.7395399553847208e+00 0 0 0
617 1 1 5.2407255655053975e-01 4.1783163704509549e+00 -2.5157861312312915e+00 0 0 0
415 1 1 -2.8715857782150627e+00 4.7372468390126690e+00 -4.0342892647850608e+00 0 0 0
253 1 2 -2.0827930228400189e+00 5.6212479257257337e+00 -3.7085295970594645e+00 0 0 0
157 1 2 1.2994173689460649e+00 4.7973046419835672e+00 -2.4274044192216451e+00 0 0 0
667 1 1 -1.0016100986149838e-01 6.2862632748564318e+00 -1.7687149535782729e+00 0 0 0
985 1 1 -1.8088094611413486e+00 6.0916855504729011e+00 -1.8890575096573623e+00 0 0 0
579 1 1 2.9152002503684670e-02 5.5758805389728323e+00 -8.6295893523113443e-01 0 0 0
291 1 2 2.8920499683659533e+00 6.6429910295500934e+00 -1.9878620556893694e+00 0 0 0
761 1 1 -2.7498546340785466e+00 6.1020822603774443e+00 -2.1164663284005854e+00 0 0 0
118 1 2 -8.8838866057352484e-01 6.9223731066144332e+00 -1.6251286340731492e+00 0 0 0
501 1 1 3.2189243144900006e+00 6.7098014590525388e+00 -2.9952398043906765e+00 0 0 0
810 1 1 -1.1106150759271241e+00 -7.2480099124523116e+00 -1.7516804520704625e+00 0 0 0
126 1 2 -1.8795149142411278e+00 -6.4719368525415124e+00 -1.8218045317746479e+00 0 0 0
683 1 1 -5.2653914589827764e+00 -5.3556254213452208e+00 -1.1361271403973816e+00 0 0 0
265 1 2 -4.3539852609312559e+00 -5.8166212546286085e+00 -1.2771008691798473e+00 0 0 0
830 1 1 -7.1691272329675992e-01 -5.8512937853405473e+00 -1.1852457455796159e+00 0 0 0
300 1 2 2.5746774309869540e+00 -4.7120040430267345e+00 -2.3480933480556017e+00 0 0 0
608 1 1 -4.8447096692966598e+00 -4.2728134355365261e+00 -1.3612779532744594e+00 0 0 0
520 1 1 -1.6315864688683606e+00 -3.7274397752564190e+00 -1.4907438377800892e+00 0 0 0
702 1 1 4.3033264260186926e-01 -4.4557221316409015e+00 -5.0785622409350339e-01 0 0 0
133 1 2 -2.5716929547279546e+00 -3.3588237160711709e+00 -1.6676659867283572e+00 0 0 0
588 1 1 2.5933383003483725e+00 -3.0664846567383877e+00 -1.9687941674687877e+00 0 0 0
122 1 1 3.4617396793919615e+00 -3.4081293991786650e+00 -1.4797538645279837e+00 0 0 0
849 1 1 4.4172758174088047e+00 -2.8277273586927363e+00 -1.0352830518106140e+00 0 0 0
251 1 2 5.5159103251239445e+00 -2.7101745820631629e+00 -6.6788501074320039e-01 0 0 0
360 1 1 -3.8193852665718340e+00 -2.1774458129222780e+00 -6.9294937102361731e-01 0 0 0
812 1 1 -4.2379558696154858e+00 -2.5968915526185397e+00 -1.3047544809086513e+00 0 0 0
666 1 1 -4.1901652014692026e+00 -2.6259486796556133e+00 -1.5353539572203472e+00 0 0 0
475 1 1 -4.4030817620397142e+00 -2.3957057830451793e+00 -1.5286847200798432e+00 0 0 0
637 1 1 3.9954178453049560e+00 -2.6842038115943283e+00 -1.8810006081631254e+00 0 0 0
988 1 1 2.7427004838799922e+00 -2.0267980931012022e+00 -5.5616438911605082e-01 0 0 0
477 1 1 6.5348943779073592e+00 -2.6578579121904631e+00 -5.8302569834175977e-01 0 0 0