# oxDNA Generated Gel - Generated on Fri Oct 30 00:02:34 2020

100 atoms
108 bonds

2 atom types
1 bond types

-30.0 30.0 xlo xhi
-30.0 30.0 ylo yhi
-30.0 30.0 zlo zhi

Masses

1 1.0
2 1.0

Atoms

1 1 1 0.5449181873147104 2.8295012694096364 -0.6155886175524241
2 1 2 3.7336395071036073 1.3728557745374381 0.7534103150144738
3 1 1 0.7235787175590076 0.18784635601843824 -1.0305721661248235
4 1 2 2.640713563074808 1.3649400657060369 0.8233643681554739
5 1 2 1.3048522022301068 -0.02875979725406097 3.2323906534621774
6 1 2 2.0074021013672105 2.5303034162141387 2.5251502191802775
7 1 2 0.4535315399925075 0.3263264181743395 3.885063084141576
8 1 1 2.6091115235642093 -0.11157933734846281 2.4394823754071755
9 1 2 1.6767851559327092 -0.5626205448667623 0.4625208079055749
10 1 2 1.7537646188324079 1.9379600210509373 0.41805217307067544
11 1 2 -0.896748102700391 1.0083430754726361 -0.21037594911782342
12 1 1 2.4401764606549072 1.4750384466408377 -1.1588317064306235
13 1 1 3.264845364754809 -0.33938029361806166 1.6302979945122757
14 1 1 2.2128908762472115 1.0982630723628386 -0.16639985811982427
15 1 1 2.7645362548108103 0.3318273623591388 -0.626410981849526
16 1 1 3.2574940575756095 1.5285543027787387 1.861254806179776
17 1 1 0.6681035681976066 -0.038471788208962465 0.0623532715424755
18 1 1 0.5996416922532095 -0.11874683892346383 2.0683747003324733
19 1 1 1.2269295893552101 -0.8246448966260616 1.4598587014966764
20 1 1 3.298500644256812 1.2485836507568386 -0.2510186455971244
21 1 1 2.676230595035811 2.1351765547213404 -0.13571363835522554
22 1 1 1.6049982478581093 0.21141925201003886 -0.4329449127638245
23 1 1 0.34500525026610696 1.712052714152339 2.530418339309575
24 1 1 1.1341378989105078 3.27395563970234 2.306792559442373
25 1 1 -0.1650564468294906 1.5378220422034392 1.5398528256638766
26 1 1 -0.5103630160073926 0.9124779897031381 3.5205047510828766
27 1 1 1.865608314467007 3.859568522021135 0.478207797925176
28 1 1 -0.6557172790657901 1.2159719643807385 2.5056673598212758
29 1 1 1.9585249598201084 1.8143427564274397 3.3222288560674773
30 1 1 3.0921074188349102 1.8176768921071371 2.927820338621677
31 1 1 0.20351503536440774 0.9443302385576366 -0.36818624397502475
32 1 1 2.228805928822009 -0.31417620204026164 1.3973324531386755
33 1 1 1.40389672025721 -0.9125677556054619 2.5523256440069755
34 1 1 0.7900159185242099 1.8670183129011377 -0.0814548149633243
35 1 1 0.6428726296686076 3.7591926618127403 0.13930049933287592
36 1 1 1.33020453198991 2.8974436963952392 0.155199049557476
37 1 1 0.7571871130264078 0.9543181011720385 1.7986468985426747
38 1 1 0.24008609139871062 0.7924489014953373 0.8378070474051764
39 1 1 1.3552608320430082 2.6225126324509382 1.197349167122276
40 1 1 3.8320422070115114 0.6223302138380387 1.5485742874905775
41 1 1 1.0445456902766068 2.330409695248939 3.067989013928676
42 1 1 1.1964166572819082 0.19297785788553767 1.1513702004750765
43 1 1 2.787443623009409 -0.5871025030423631 0.37103309930707695
44 1 1 1.2870115195728111 1.8638475461790378 2.031274999893176
45 1 1 -0.1249301793493931 1.9283814623021378 -0.7120727063931263
46 1 1 0.2430006159169089 0.6208369167017391 2.7969165978405766
47 1 1 3.2333453397660072 0.413979958376439 0.5053347875705754
48 1 1 0.32820568884940826 2.7223658990765394 0.625712606245374
49 1 1 1.7269856601474078 2.249299596155936 -0.6321406587117249
50 1 1 3.0743268363687086 2.565857459504336 2.081489437534577
51 1 1 1.1447707550978077 -0.8382504981089607 -0.5520661116322234
52 1 1 0.18075595437821157 2.9261188869016372 2.7599817991517757
53 1 1 -0.4387905119827895 -0.6288574540727616 1.9720228418180774
54 1 1 3.1961720399951083 2.284058052923438 0.9171126190156755
55 1 1 0.17139230232470837 -0.44152886408656045 3.039995954268276
56 1 1 -0.2411040549986918 3.316077861710138 1.3836529293095747
57 1 1 -0.7666040989758933 0.05760041063043886 2.741325570268776
58 1 1 0.22543959210980802 -0.32008746262786403 1.071983714018078
59 1 1 2.1193680593217117 0.41000164671283734 0.6101250470155755
60 1 1 2.230531572271307 1.3674584972536383 2.365914134706875
61 1 1 2.1792013035528086 3.2265521461745372 -0.4265531722120244
62 1 1 -0.7429104756525913 2.4208266826070393 1.0241385547404729
63 1 1 -0.4684346076205905 0.25049188816073986 -0.9009557817847256
64 1 1 2.417728996964211 0.6309702793647389 3.2760648096831755
65 1 1 2.384474035882107 -1.1167604706632606 2.0909950781649744
66 1 1 0.03215104945650715 -1.376032685144061 1.2736072727477765
67 1 1 -0.1899197864760911 1.6515823215178376 0.4053509545857761
68 1 1 0.06120101762610908 -0.7138015594922607 -0.805752410393124
69 1 1 2.283800446394906 2.855330382471937 0.6548063053036763
70 1 1 1.2431998907260073 1.2297876906210377 -0.7780443549355258
71 1 1 2.055406275659408 3.398234399686338 1.5583452211011757
72 1 1 1.2236948999377102 1.0881113997231378 2.791922995915476
73 1 1 -1.3111097677273928 1.6455702766594396 1.6037558976902737
74 1 1 0.9444000113065094 2.110451371962437 -1.377288055062225
75 1 1 1.7376991183485089 0.5539071653980372 -1.4651660967412248
76 1 1 0.4416887236220095 2.5088705059525367 1.752677750067674
77 1 1 0.7488406339379097 1.714115618818239 0.9921207858303749
78 1 1 1.6750054996371073 0.38104592631423984 2.150768304855875
79 1 1 0.1794626562794086 1.1664411544769386 -1.441805920121224
80 1 1 0.5347645675442099 1.5116652009400369 3.6141441737411757
81 1 1 0.7932217550759084 3.5174913793118385 1.2750792134414741
82 1 1 0.46079789463710696 -1.3906547693428628 2.4607324551065783
83 1 1 1.1802230284841073 0.882620048579037 0.2903832524045775
84 1 1 -1.3439730282189917 0.5146579886510381 1.9409299371317754
85 1 1 -1.37325269419029 1.8005984091522382 0.39052422590547486
86 1 1 1.5341760674359097 0.9252036191416373 3.804767504188378
87 1 1 -0.8264681966703922 0.9330370506440389 0.8907020004722757
88 1 1 -0.936673296557192 -0.14801992263766195 1.1484285139432764
89 1 1 -0.5704374339524918 2.2915087612700376 2.1351394408467765
90 1 1 2.2501479718153092 2.106267347875537 1.5222156366127741
91 1 1 2.265798261534208 -0.6779368683552622 -0.624597276450725
92 1 1 -0.41145672426659274 0.16478724717103788 0.2200303003138746
93 1 1 2.61735339487441 0.6601071147786381 1.6524861258670747
94 1 1 -0.49652042315918976 2.6723759097205395 -0.05192439291552553
95 1 1 -0.34014808061759005 -0.9156458323008625 0.1780585720300767
96 1 1 -0.24376049918229015 0.5064954901070386 1.7562552691587747
97 1 1 3.3864033244936067 0.703657944049839 2.5619477408283746
98 1 1 0.696054807294809 -1.1835582270448626 0.47682506718437345
99 1 1 2.01352235033621 -1.5048618900564623 1.0914072503503753
100 1 1 1.6642113062008086 1.1762899858126392 1.3163797991033732


Bonds

1 1 15 20
2 1 26 28
3 1 18 19
4 1 68 95
5 1 32 93
6 1 18 96
7 1 25 77
8 1 23 44
9 1 1 94
10 1 24 52
11 1 3 79
12 1 37 38
13 1 11 63
14 1 4 16
15 1 37 78
16 1 62 94
17 1 2 47
18 1 48 56
19 1 8 78
20 1 6 41
21 1 30 97
22 1 65 99
23 1 8 65
24 1 58 66
25 1 10 14
26 1 35 81
27 1 34 48
28 1 42 58
29 1 14 22
30 1 31 92
31 1 6 29
32 1 36 69
33 1 83 100
34 1 27 71
35 1 41 80
36 1 3 68
37 1 28 89
38 1 53 82
39 1 9 43
40 1 7 80
41 1 31 34
42 1 53 88
43 1 6 71
44 1 3 22
45 1 60 93
46 1 60 72
47 1 5 86
48 1 5 33
49 1 8 13
50 1 17 38
51 1 45 67
52 1 10 77
53 1 12 75
54 1 6 90
55 1 63 68
56 1 9 99
57 1 4 90
58 1 44 100
59 1 42 59
60 1 15 91
61 1 92 95
62 1 24 81
63 1 49 61
64 1 67 87
65 1 2 20
66 1 51 91
67 1 33 82
68 1 57 84
69 1 5 72
70 1 70 83
71 1 1 35
72 1 2 40
73 1 4 59
74 1 23 46
75 1 4 54
76 1 30 50
77 1 5 55
78 1 62 73
79 1 3 63
80 1 51 98
81 1 11 85
82 1 7 46
83 1 10 49
84 1 45 79
85 1 70 74
86 1 1 36
87 1 19 98
88 1 9 17
89 1 55 57
90 1 12 21
91 1 9 32
92 1 50 54
93 1 73 84
94 1 10 39
95 1 8 64
96 1 3 75
97 1 29 64
98 1 25 96
99 1 87 88
100 1 52 89
101 1 7 26
102 1 39 76
103 1 40 97
104 1 29 86
105 1 21 69
106 1 1 74
107 1 43 47
108 1 27 61
