# oxDNA Generated Gel - Generated on Thu Oct 29 23:59:37 2020

100 atoms
117 bonds

2 atom types
1 bond types

-20.0 20.0 xlo xhi
-20.0 20.0 ylo yhi
-20.0 20.0 zlo zhi

Masses

1 1.0
2 1.0

Atoms

1 1 1 -0.3542301140222044 1.7848875238768258 0.9665329037607417
2 1 2 0.6111140260358567 1.2355946588483242 -0.4974421727920664
3 1 2 3.0864941378476054 2.6109612904517228 0.7248068222175323
4 1 2 -0.2009542238130848 1.825077809456623 3.0894388179170527
5 1 2 0.4081447673854548 -0.040358088559514727 3.0080343048891507
6 1 2 3.2549548959363044 0.6401497354080252 0.20335839294714297
7 1 2 0.8131065597227654 -0.6495289814210157 -0.7838679463468772
8 1 2 1.3162361996121064 -1.3832213589249758 0.9326893221731432
9 1 2 1.6892698097301064 1.0067949937520435 3.1127635778776526
10 1 2 2.4260519597943055 1.8339780115822233 1.940300823792251
11 1 1 -0.3262986228440248 2.867346414879224 0.653820933307383
12 1 2 2.156392861359805 2.0883293603649253 0.8790591415187023
13 1 2 0.5750108797523765 0.14846868344204367 -0.09327898434541737
14 1 1 2.270704043473007 -0.3173384129427763 2.600228042051052
15 1 2 0.9704371340874172 -0.568299779336515 1.6035320760287508
16 1 2 2.561336389020205 0.4728745369811751 -0.6624067286819777
17 1 2 1.0983261408260052 0.5847702826436443 1.3446841151210531
18 1 2 -1.260862134470944 1.225483060093925 0.5270051616120135
19 1 2 -0.6201658982167739 -0.31366449758038506 1.4991406886363539
20 1 2 3.3405480783619055 1.1773340457622226 2.028444109929053
21 1 2 1.169890219534805 -0.7682204711146952 2.6273384337389523
22 1 1 0.8220772905448666 0.4111256660568934 -1.1873935463679963
23 1 1 0.36486281520485697 3.5492228413909253 1.0830437204788321
24 1 1 -0.29232353236187514 0.7245153908129147 -0.8389536945313676
25 1 1 0.8808370553175262 2.8416095640107244 3.244265556368152
26 1 1 0.3172557045817168 1.0504327858956852 0.5310211032921526
27 1 1 3.3190498282016048 -0.33952691307321636 0.601014601450153
28 1 1 0.47027995309391635 3.2390660181642232 -0.0016717584501986238
29 1 1 0.6041491537049453 1.1121906022252244 2.7290892174934527
30 1 1 0.7662067302045052 3.226874175324925 2.1359610048611515
31 1 1 1.317342071391705 -0.257080725032905 0.6333533215326419
32 1 1 0.37726204576088485 2.4758009672208257 1.4289011409364516
33 1 1 2.3189643406342064 1.3014456248226232 0.11774335132125202
34 1 1 -1.2527181715486337 2.2849944629794248 0.17903169133544417
35 1 1 2.776598588643905 1.4833606189362243 3.029440112623952
36 1 1 -1.293068400679485 1.558984017138524 1.6976962260840534
37 1 1 0.540818620877225 -0.8849276085206661 0.19689471296901395
38 1 1 1.922971574875005 -1.0567701794700657 1.8572565552112525
39 1 1 1.2074666922677046 2.770546214363824 0.7169323669717826
40 1 1 0.0397808972932161 -1.1347382430341755 1.2395069985041527
41 1 1 -1.1399238953898445 2.569825004180924 1.3773301388865526
42 1 1 1.6371756062860054 1.0686756715448738 -0.790057549888278
43 1 1 1.2874032350110056 0.2869094319645136 2.3572814420480537
44 1 1 -0.009297358164573666 -0.7914703570709847 2.2715446214780535
45 1 1 2.794520339208205 2.5496019693423264 2.7257331270794527
46 1 1 0.9027874615680158 1.7694974743190244 3.5213780150532514
47 1 1 1.4317588777066064 1.3423048320906243 2.018678116946152
48 1 1 -0.12379036245648578 1.757729257569924 -1.2370088996287976
49 1 1 3.4157903808360057 2.276498525153025 1.6980750055932514
50 1 1 0.7113391515676355 2.3722082020644244 -0.7757506853718272
51 1 1 1.3461923382254053 0.8171170080060346 0.315676478852172
52 1 1 2.3952638751241047 2.8822938197560255 1.6068985932911524
53 1 1 0.2191725113876064 0.2643958383053633 1.9794792672174548
54 1 1 -0.42910371130265546 1.602277369029025 -0.09075229229435777
55 1 1 2.9859812095343052 0.42215782778083444 1.315332978376853
56 1 1 1.8558288253356068 0.25175870677382406 -1.4708044779602165
57 1 1 1.5559861320066055 -1.0851767233972254 -0.1419270324997175
58 1 1 -0.33687948810478474 2.662697655140125 -0.42573805613948856
59 1 1 1.5437311212412066 3.5966276408713256 1.3933869392689537
60 1 1 2.5759582843287046 -0.5944347657673159 -0.27940063552354744
61 1 1 3.035358198597006 1.4630633382573244 0.9817240962500016
62 1 1 0.9396896482428652 1.5336565991595243 -1.5445492758060464
63 1 1 2.330941794796706 0.16921513251726417 0.46227799893986266
64 1 1 -0.4588815963938746 0.7362105736750149 1.2541643450033533
65 1 1 3.2036810043830073 0.2261099576562149 2.500527666772152
66 1 1 1.1267688114752055 1.6949270799756242 0.9551678818414029
67 1 1 -0.4917465761708648 0.3291430482262925 0.23893495952651378
68 1 1 1.8122018923215073 3.132214527257325 2.507787513491353
69 1 1 1.5180415629324049 3.0102040279222244 -0.27540652199020776
70 1 1 0.3651643912967959 1.3420041837407233 1.682292367250053
71 1 1 -1.3773241794087152 0.3622894120132649 1.7819913622149528
72 1 1 -0.4147644210165744 2.0692896854066234 2.087060482221453
73 1 1 -0.6726921984110845 -0.07068200550057568 2.7045326891041537
74 1 1 2.2853676604119055 -0.8718741189468773 0.7590853392294825
75 1 1 2.043180396728305 1.033727513831284 1.175100751767653
76 1 1 1.9692052721896065 -0.05083392382937646 1.4742556778796523
77 1 1 0.22630709656418624 -0.08228265945687596 0.950267216504713
78 1 1 0.7694167920130859 -1.6156474249067054 1.8352923479069538
79 1 1 1.555668071954507 -0.0685811200821167 3.4185916129420537
80 1 1 2.4952685592984043 2.432943601232525 -0.13918146565024792
81 1 1 2.200432742928607 3.301743246714624 0.5048378679202123
82 1 1 -0.2642049132527138 0.7819538093678133 3.381680438254353
83 1 1 2.264461131320706 0.7299529537767739 2.226589909442753
84 1 1 0.6162675254759851 2.176830624640223 2.4306660060522525
85 1 1 3.3255144944435067 1.7535471865182224 -0.03219495394877825
86 1 1 -0.5372600415009234 -0.7934935708786455 0.36146547447757094
87 1 1 -0.14274925042149356 2.902776507891625 2.7889890336303527
88 1 1 1.6283621819102052 0.014668800723223185 -0.3949563806169376
89 1 1 0.7741017276735871 0.6655933536970249 3.8117259415435516
90 1 1 -0.5049943764239337 1.0104214814356247 2.2858774048554533
91 1 1 1.4110783946887047 1.9387567566406236 -0.059619360662678034
92 1 1 -1.2886460816983938 0.6290964486186432 -0.4000581240774874
93 1 1 2.9028417104533055 -0.5931275337205548 1.644626261717752
94 1 1 2.739633175791008 1.5185061055698252 -0.8837051323493981
95 1 1 -0.47042715667515544 3.3299820298979252 1.776584716979153
96 1 1 -0.24519442411705406 -0.5072495823382255 -0.6641032484558576
97 1 1 1.7689373881207064 2.1251039280865243 2.9023620783346527
98 1 1 1.7248714394902063 2.217627122529425 -1.0965935151811577
99 1 1 0.4229111895086852 2.1701411746189248 0.2910775791310929
100 1 1 1.4297003024516055 2.387662358364624 1.7345028695966516


Bonds

1 1 87 95
2 1 24 92
3 1 48 62
4 1 5 44
5 1 3 52
6 1 11 28
7 1 20 65
8 1 73 82
9 1 1 64
10 1 14 93
11 1 29 70
12 1 2 42
13 1 1 54
14 1 10 75
15 1 23 95
16 1 4 82
17 1 80 94
18 1 6 85
19 1 3 85
20 1 19 86
21 1 12 80
22 1 8 38
23 1 15 76
24 1 8 78
25 1 36 41
26 1 9 97
27 1 11 41
28 1 62 98
29 1 18 36
30 1 7 57
31 1 16 60
32 1 4 87
33 1 11 58
34 1 2 99
35 1 59 81
36 1 13 51
37 1 12 61
38 1 39 66
39 1 30 32
40 1 35 45
41 1 16 94
42 1 18 92
43 1 4 84
44 1 68 97
45 1 57 60
46 1 25 30
47 1 5 43
48 1 10 47
49 1 7 37
50 1 20 49
51 1 9 43
52 1 19 64
53 1 2 24
54 1 16 88
55 1 31 63
56 1 40 77
57 1 71 90
58 1 9 79
59 1 17 66
60 1 5 89
61 1 14 65
62 1 48 54
63 1 6 27
64 1 55 76
65 1 3 49
66 1 13 22
67 1 7 96
68 1 6 61
69 1 50 91
70 1 20 83
71 1 17 77
72 1 19 73
73 1 18 67
74 1 44 78
75 1 14 38
76 1 1 72
77 1 25 46
78 1 1 32
79 1 5 29
80 1 46 89
81 1 51 91
82 1 50 58
83 1 12 100
84 1 26 70
85 1 69 98
86 1 84 100
87 1 28 69
88 1 22 56
89 1 17 75
90 1 15 21
91 1 33 42
92 1 17 47
93 1 20 55
94 1 14 83
95 1 15 31
96 1 2 26
97 1 21 79
98 1 12 33
99 1 53 90
100 1 18 34
101 1 59 68
102 1 45 52
103 1 8 37
104 1 23 39
105 1 4 72
106 1 15 53
107 1 6 63
108 1 11 99
109 1 3 81
110 1 13 67
111 1 19 71
112 1 9 35
113 1 7 88
114 1 8 74
115 1 27 74
116 1 16 56
117 1 86 96
