LAMMPS data file via write_data, version 22 Oct 2020, timestep = 1000000

42 atoms
2 atom types
43 bonds
1 bond types

-20.0 20.0 xlo xhi
-20.0 20.0 ylo yhi
-20.0 20.0 zlo zhi

Masses

1 1
2 1

PairIJ Coeffs # lj/cut

1 1 1 1 2
1 2 1 1 2
2 2 1 1 2

Bond Coeffs # harmonic

1 2.5 1

Atoms # bond

38 1 1 -1.3634554185558014 -1.315837876045644 0.6828536710533256 0 0 0
7 1 1 0.974213234924397 0.29478893190029665 0.7547314816538144 0 0 0
5 1 1 -1.3156971915196387 -0.25450197862193863 0.21476955567817343 0 0 0
16 1 1 -1.2985650758624316 0.30567683609111945 0.9104279616188009 0 0 0
14 1 1 -0.855745005021597 -0.048060428698244506 -0.18380585543711878 0 0 0
3 1 2 0.31637306045061486 0.08995577536841509 -0.2627138471554871 0 0 0
33 1 1 0.6440591505551984 0.8456433995264833 -1.0718472040582956 0 0 0
30 1 1 -0.7404514521722748 0.9022887800757354 2.331907208709144 0 0 0
2 1 1 -0.6459552492122699 -0.019932719045398693 1.8398536398958487 0 0 0
28 1 1 -0.6695278562506929 1.7043153404784332 1.7658626359435476 0 0 0
11 1 1 1.149972529366623 -2.221562202798991 -0.35995275422154366 0 0 0
18 1 1 -1.6249645327617483 0.7882506372716238 1.9288867582239604 0 0 0
12 1 1 0.37047895923920804 1.7906757153430717 0.42370992721009204 0 0 0
41 1 1 0.7240915143739085 1.8319783887490946 -0.5013114758234883 0 0 0
26 1 1 -1.4424690134613183 -0.8746895587400113 0.3316061700464012 0 0 0
25 1 1 -0.37251960311783144 -0.6544114286708441 -1.0317461483693726 0 0 0
19 1 1 -0.7458381688297321 2.084032027392454 -0.056386167887266095 0 0 0
1 1 1 -0.30526499344583724 1.2087728857337563 -0.5277718044634104 0 0 0
42 1 1 -0.9586685479514903 -0.6400528148802908 1.2620563426052804 0 0 0
4 1 2 -0.17858511969877539 -0.9519427552916466 0.011448561057044327 0 0 0
22 1 1 0.23596571699195018 -1.0778906699538966 -0.08053662864370659 0 0 0
6 1 2 1.3828672883539428 0.1010990691407769 -0.5225641112301345 0 0 0
35 1 1 0.20095387541494458 -0.04029485795368708 -0.3748185409664688 0 0 0
17 1 1 0.1072458220442092 1.0017371622151583 -0.9983744211656335 0 0 0
9 1 1 -0.24279106992767183 0.0384514718127376 0.7809588789449609 0 0 0
10 1 1 -0.03655539797927759 0.05030884260897477 0.7220559741849065 0 0 0
34 1 1 -0.18284248077116438 0.9698730536602557 1.290422533919576 0 0 0
31 1 1 0.8167720847410017 0.9988517891296883 0.022123164879523385 0 0 0
40 1 1 -0.45007022183869694 1.1165458344685584 0.09128931630226185 0 0 0
8 1 1 -0.15842285980226908 0.1739684693320075 1.9615772575947445 0 0 0
29 1 1 0.6216902154689142 -0.33403623684927924 -1.9660034180477035 0 0 0
23 1 1 0.041423125780877576 -0.8217543205865668 -1.3876131706481656 0 0 0
15 1 1 1.6867691547750094 -0.8222121600269808 -0.9853525502016472 0 0 0
39 1 1 1.0515085255562453 -1.028657619813356 -0.813647113489479 0 0 0
36 1 1 0.4156740752666572 -1.7502500568020494 -0.97995969525731 0 0 0
13 1 1 -0.3212774716987599 0.443500189008317 -1.8196206922838207 0 0 0
32 1 1 -0.7171647068374751 -0.8776266534059765 -2.149675430963951 0 0 0
24 1 1 2.132887529739579 -0.4722440367067038 -0.3353149909680146 0 0 0
27 1 1 0.2610028876103766 -0.9054500945512658 1.4191531945877036 0 0 0
21 1 1 1.4002308484320576 -1.1912210799024139 0.11188529944883223 0 0 0
20 1 1 -1.1122503483965602 0.30571092318814885 -2.6486863536296927 0 0 0
37 1 1 1.2049021860275992 -0.7437959731499206 0.20012284135376343 0 0 0

Velocities

38 0.48837033967501176 -0.6414107636285946 0.8221985663626636
7 -0.9754210188718403 -0.23532127894488755 1.5716515352694032
5 -1.4151479979613513 -0.7593778418248711 1.3129487873393697
16 -0.022382294794387345 0.5582443924126401 -0.14881216320371973
14 1.0021882754133298 0.22164988898874635 -0.3569348812628947
3 -1.7944713127327099 -1.1533346677089877 -1.389739091504816
33 -1.1403156642109913 -1.0411634161618257 0.21825066660288917
30 0.21671670229660278 1.1754823178528322 1.1149466889220931
2 0.4754542372207698 1.0393327720585017 2.025834719836026
28 0.4010624767993699 -0.655458878190792 0.7400146132792519
11 -0.26480990186253583 0.17120572451463442 -0.08077258326467388
18 1.7998006910839774 -0.010228933412891023 -1.0940197706002637
12 0.5110736075280946 -0.8109992615572336 -1.3715592117305206
41 -1.2329904229476971 0.33988922109506386 -0.5024779450258768
26 -0.12681186135490058 -0.23023693916356514 2.9446377669097776
25 0.7603173076044396 -1.1936293554897304 0.801980182404556
19 2.435469394435244 1.2305148975766007 1.9502458906026154
1 -1.1980788591944336 0.3317881050665389 -2.2990148634586576
42 0.003083662295538827 -0.11884428323999609 -0.046065391111118355
4 1.5118913628787132 1.4082682584024213 1.7313911161253461
22 1.7254222512912036 0.9153660156717345 1.4430429962753937
6 0.3339994508081443 1.750107158943065 0.38955713301956224
35 -0.09222991109252189 0.06072983397729534 -1.9786051297261398
17 -0.2063306890478016 -1.1436295004808756 -0.001093667408617452
9 0.2760478741254154 0.0661006223847505 0.4554595459504742
10 0.14912371191831397 -1.4067403147348632 -0.6537883860093747
34 0.14109694558901392 -0.8185985092592626 0.16798131805155772
31 -0.5914964819543652 1.5578427710889422 0.09194091170899851
40 0.05057631163952886 1.9512655689506324 1.9257877885672554
8 -0.2901334698135186 -0.732172870197174 -0.5102009833919087
29 0.7980843461309856 1.4053077338714155 -0.3704613387926006
23 -0.4249604916489988 1.7665692184758452 1.0272523181569482
15 0.5853603312311485 -1.305966525352384 -1.846997379562923
39 0.8959724433319336 0.49538332216051956 -0.5209031016847918
36 0.5178222174579008 1.6725548109124213 0.23993820475959224
13 -1.3941134463130862 -0.18864422159446675 0.3267386528225072
32 1.5207719183165245 1.805431729216231 -0.4135794037604688
24 1.0529403521190908 -1.0707748526309209 0.963952685485907
27 0.8597584090770909 1.0372415531893058 0.36270865431517485
21 1.4268116235809885 -0.03876079465745485 -0.9188632486693153
20 -0.7499442882020367 1.6686705072833519 0.36622000503457924
37 2.076608925835093 -0.6346577740925484 1.4141210087658544

Bonds

1 1 38 42
2 1 7 12
3 1 5 16
4 1 5 18
5 1 5 14
6 1 5 26
7 1 3 7
8 1 3 25
9 1 3 14
10 1 3 35
11 1 2 42
12 1 2 8
13 1 2 16
14 1 2 30
15 1 28 30
16 1 28 34
17 1 11 21
18 1 12 41
19 1 26 38
20 1 19 41
21 1 1 40
22 1 1 17
23 1 1 19
24 1 4 9
25 1 4 22
26 1 22 27
27 1 6 24
28 1 6 35
29 1 6 13
30 1 17 33
31 1 9 10
32 1 10 34
33 1 31 37
34 1 31 40
35 1 8 18
36 1 29 32
37 1 23 25
38 1 23 29
39 1 15 24
40 1 15 39
41 1 36 39
42 1 21 37
43 1 20 32
