LAMMPS data file via write_data, version 3 Mar 2020, timestep = 1000000

500 atoms
2 atom types
644 bonds
1 bond types

-1.9609999999999999e+01 1.9609999999999999e+01 xlo xhi
-1.9609999999999999e+01 1.9609999999999999e+01 ylo yhi
-1.9609999999999999e+01 1.9609999999999999e+01 zlo zhi

Masses

1 1
2 1

PairIJ Coeffs # lj/cut

1 1 1 1 2
1 2 1 1 2
2 2 1 1 2

Bond Coeffs # harmonic

1 2.5 1

Atoms # bond

491 1 1 -4.2949882587318400e-01 -1.9447762869340182e+00 -3.4515396851770714e+00 0 0 0
283 1 1 -1.5401744373056074e+00 -8.4910209168033346e-01 -3.6348617336137008e+00 0 0 0
363 1 1 -4.1011608794915677e-01 -8.4099145756109228e-01 -3.3716717870360529e+00 0 0 0
59 1 2 1.1407486710056340e+00 -9.8075432119187977e-01 -3.5229610966258686e+00 0 0 0
258 1 1 9.5777700006944710e-01 1.3033084219633911e-01 -4.5492438936103934e+00 0 0 0
181 1 1 1.9400489843357551e+00 6.8369739432111021e-01 -4.9035618471184907e+00 0 0 0
182 1 1 -2.0794731554699202e+00 1.1525793192775444e-01 -3.9616319500862982e+00 0 0 0
414 1 1 -4.5219440585634130e-01 2.3639620532227656e+00 -2.9208557772907651e+00 0 0 0
105 1 2 1.0919514106643955e+00 -3.5357195099971983e-01 -4.4910816129173394e+00 0 0 0
342 1 1 -4.9943267699354826e-01 1.1987463172361501e+00 -3.9864051534695930e+00 0 0 0
115 1 2 -4.5168624691447756e-01 1.0894189418885889e+00 -3.7778281431212695e+00 0 0 0
204 1 1 5.1868049806178651e-01 9.9157914252270296e-01 -4.2490979604516799e+00 0 0 0
409 1 1 2.7760095781366450e+00 1.4152177125806726e+00 -4.1802803144027081e+00 0 0 0
369 1 1 -1.2065111539699593e+00 -3.9411590677406334e+00 -1.1226253994494035e+00 0 0 0
28 1 2 -2.0832746594695339e+00 -2.1782271549166627e+00 -3.1685802620408925e+00 0 0 0
168 1 1 1.3112515220086920e+00 -1.8646570797539788e+00 -3.0577083740296231e+00 0 0 0
441 1 1 2.5684826218033070e+00 -1.8020016374691739e+00 -3.1676978623776781e+00 0 0 0
226 1 1 -2.3243691620892566e+00 -1.8582318472163737e+00 -2.8764469489876130e+00 0 0 0
442 1 1 -1.1909660022838704e+00 -1.3967275631853724e+00 -2.7573882670662115e+00 0 0 0
468 1 1 -9.9521624074477577e-01 2.4751770090349476e-01 -4.1789483222886643e+00 0 0 0
225 1 1 1.7251539300602785e+00 -2.8347843387299259e+00 -3.5981842115593081e+00 0 0 0
296 1 1 1.1460328655186642e+00 -9.5004635395711057e-01 -2.3821500024628350e+00 0 0 0
17 1 2 1.8451410534353538e+00 -1.7340865491502306e+00 -2.7849450468470520e+00 0 0 0
286 1 1 1.6318069734018410e+00 -1.0172960935390090e+00 -3.7008160726612132e+00 0 0 0
98 1 2 2.0151546526620279e+00 -2.7285509318741441e-01 -2.4741356685250135e+00 0 0 0
461 1 1 1.9503635456814552e+00 1.6352773872626031e-01 -3.9973896760741403e+00 0 0 0
338 1 1 -3.1315368966527788e+00 -1.0119912758606220e-01 -2.2687004245617493e+00 0 0 0
417 1 1 -2.5504551340018602e+00 -7.3916124579267706e-01 -3.0678323098512146e+00 0 0 0
33 1 2 -1.4429405817674867e+00 -1.2032878251710335e+00 -3.1292399719288211e+00 0 0 0
281 1 1 -1.6843358804824979e+00 -1.3761614955742536e-02 -2.8970264644663750e+00 0 0 0
125 1 2 -4.7423289265883367e-01 -7.5973268382735770e-01 -3.5459062130078856e+00 0 0 0
464 1 1 1.3440166078055248e-02 -1.5398696134479442e+00 -4.3963267939175958e+00 0 0 0
241 1 1 4.7150339215471343e-01 -1.4407474268117171e+00 -3.3551315568063207e+00 0 0 0
6 1 2 1.0350849760122943e-01 7.0372901741704408e-02 -3.7943445106027878e+00 0 0 0
67 1 2 2.5331399127646159e-01 -2.0907604783820447e-01 -2.7887345156389109e+00 0 0 0
402 1 1 2.7677060904074247e-01 -3.9667230147124843e-01 -2.7432343309108034e+00 0 0 0
32 1 2 2.0705771460800246e+00 2.2258151236014584e-01 -3.8219319981004918e+00 0 0 0
147 1 2 1.0655416066069467e+00 9.0252909994429226e-02 -3.2925494213882796e+00 0 0 0
430 1 1 2.6078779284574485e+00 6.6780923941896275e-01 -2.5400204466453182e+00 0 0 0
205 1 1 2.8825892968871449e+00 2.7698875578760926e+00 -2.6868009364168213e+00 0 0 0
366 1 1 -1.5378287660299159e+00 1.6325350391292970e+00 -2.0874758458314289e+00 0 0 0
411 1 1 -1.5778330506778062e+00 9.5591610894670109e-01 -3.2958536820120021e+00 0 0 0
75 1 2 -7.1110744282078997e-01 2.7181712635866412e-01 -3.2008352126886139e+00 0 0 0
245 1 1 -7.2645970970721674e-01 2.9926554224607921e-01 -3.2629816462097745e+00 0 0 0
154 1 1 2.2882808438793714e-01 5.1928910607727335e-02 -3.7713459609329920e+00 0 0 0
259 1 1 3.9233947066694591e-01 9.0523995738247809e-01 -3.0866632838174231e+00 0 0 0
455 1 1 1.4790779330885169e+00 1.1625376393266644e+00 -3.9242092745017931e+00 0 0 0
372 1 1 2.1158163572149409e+00 1.7008108462082396e+00 -2.8788218152703151e+00 0 0 0
15 1 2 2.4635039630678426e+00 1.4602780911435969e+00 -3.1293839624327044e+00 0 0 0
416 1 1 3.1086078073003680e+00 3.2673993854097255e-01 -3.7458657638823381e+00 0 0 0
200 1 1 3.1859412125456092e+00 3.0585374040292099e+00 -6.3925335741816491e-01 0 0 0
310 1 1 -1.3975232428157551e+00 2.7017626808809592e+00 -2.9098777135445006e+00 0 0 0
144 1 2 4.5655256014694962e-01 1.7986475836389697e+00 -3.5788317954069271e+00 0 0 0
339 1 1 3.1517546561166992e-01 2.0048761253558087e+00 -3.5649391331989748e+00 0 0 0
7 1 2 1.1283469360312113e+00 9.0823376637773678e-01 -3.9701251314919292e+00 0 0 0
265 1 1 1.2114317725540673e+00 3.2050366790192766e+00 -2.7052316950417570e+00 0 0 0
174 1 1 -1.6111220870396030e+00 3.9175167503895683e+00 -1.4430363298855537e+00 0 0 0
126 1 2 -9.4693491574225086e-01 3.3684915355381650e+00 -2.0033230427188244e+00 0 0 0
257 1 1 -5.4995248799973662e-01 3.1534585217679174e+00 -2.2901692263330413e+00 0 0 0
251 1 1 3.9998977771931910e-01 2.5115825958272771e+00 -2.2378792655301498e+00 0 0 0
401 1 1 -6.8511521237831174e-01 -2.9814768796451592e+00 -3.2018932587021887e+00 0 0 0
388 1 1 -3.1092682856544003e+00 -2.7755236671302135e+00 -1.9991123614371558e+00 0 0 0
236 1 1 -1.3125566030737923e+00 -2.4928819874737407e+00 -2.6480881925614472e+00 0 0 0
96 1 2 -2.0919232561329970e+00 -2.8590919172956188e+00 -2.2385322740953715e+00 0 0 0
129 1 2 -7.6379601948818343e-01 -3.5221286421629818e+00 -2.2487580661297430e+00 0 0 0
406 1 1 -1.3633669929242180e+00 -3.9199879033446883e+00 -2.6750102189182372e+00 0 0 0
35 1 2 5.9957469498137839e-01 -2.3231661136678876e+00 -2.3958704172637630e+00 0 0 0
196 1 1 3.2030961952740034e-01 -2.4094503055900951e+00 -2.9083080802919228e+00 0 0 0
223 1 1 2.0434604011924224e+00 -1.5461475957450777e+00 -2.3060988096494053e+00 0 0 0
459 1 1 1.9473738981211866e+00 -3.1113048356940909e+00 -1.7297774781215312e+00 0 0 0
278 1 1 -3.3978533351763853e+00 -1.2204439609326236e+00 -2.6249345154617139e+00 0 0 0
316 1 1 -2.8241980373489657e+00 -1.4330680900499719e+00 -1.5850236024412574e+00 0 0 0
325 1 1 -2.7945337303320894e+00 -9.4213150515310595e-01 -1.6358394133446903e+00 0 0 0
8 1 2 -1.8381443114362988e+00 -1.8609720773668268e+00 -2.0552921025792652e+00 0 0 0
307 1 1 -1.6756092333032528e+00 -1.8958517923680689e+00 -1.7859475282645583e+00 0 0 0
163 1 1 -8.8249420428806499e-02 -1.5391746303571494e+00 -2.4328774168010447e+00 0 0 0
266 1 1 -9.5341459323941247e-01 -1.1767612949168396e+00 -1.6572837873095552e+00 0 0 0
284 1 1 -8.9763875331695331e-01 -1.2864337554972429e+00 -1.6649533600524649e+00 0 0 0
156 1 1 -1.5517737487205846e-01 -1.3789007075701651e+00 -2.4557550346604415e+00 0 0 0
275 1 1 -4.5180326937038362e-01 -2.5092967801519070e+00 -2.1068142171889592e+00 0 0 0
90 1 2 -5.3181585131133380e-01 -2.3620216485594341e+00 -1.9003472217501822e+00 0 0 0
42 1 2 1.2098751241276908e+00 -9.2859163571707082e-01 -2.4489832779711902e+00 0 0 0
368 1 1 1.3023377039634099e+00 -1.6682802209417065e+00 -1.4842154099477161e+00 0 0 0
374 1 1 2.2025389700220135e+00 -9.4967060563869454e-01 -1.3795776422018036e+00 0 0 0
164 1 1 2.2145146897221442e+00 -8.6192659580227238e-01 -1.4538945505808627e+00 0 0 0
456 1 1 1.9602587552246178e+00 -1.1973804039185751e-01 -2.5415796551131993e+00 0 0 0
500 1 1 1.8772468627980250e+00 1.9134459868413833e-01 -1.4365593065734947e+00 0 0 0
165 1 1 1.8660777454102784e+00 3.9582941545514860e-01 -1.3849277384680359e+00 0 0 0
158 1 1 3.0155073970992055e+00 -1.9795597653001964e+00 -1.9286976339604747e+00 0 0 0
4 1 2 3.0491285003997692e+00 -1.4222113389195081e+00 -2.2620371243030188e+00 0 0 0
193 1 1 3.4959396473008204e+00 -3.3788557283707771e-01 -2.8256758831281252e+00 0 0 0
11 1 2 -3.9446978230263179e+00 -1.7046904314189975e+00 -2.1882629821665653e+00 0 0 0
302 1 1 -4.6912783614238380e+00 -1.8611608556047834e+00 -1.9015636197790655e+00 0 0 0
106 1 2 -1.9158689186161044e+00 -6.7124598679430292e-01 -2.0957781087147751e+00 0 0 0
206 1 1 -1.8645239328050545e+00 -8.1617417869446907e-01 -2.0466956769029081e+00 0 0 0
329 1 1 -8.1244239155958531e-01 -3.8646045795112893e-01 -2.3102202418259403e+00 0 0 0
113 1 2 -9.0287175645208440e-01 -4.4006678261833693e-01 -2.3865224743547491e+00 0 0 0
239 1 1 -1.1015757450991286e+00 -2.2138857542933388e-01 -1.2534368969068765e+00 0 0 0
116 1 2 4.4728292866363713e-02 -6.5042481225224125e-01 -1.7030020094967442e+00 0 0 0
300 1 1 9.8930899416931284e-01 1.8646086811181797e-01 -2.1664733329407655e+00 0 0 0
319 1 1 7.0214242854040532e-01 2.7247558928194082e-01 -2.0564029571035420e+00 0 0 0
358 1 1 3.3247191148828084e-02 -5.5638149884211630e-01 -1.6721332222522927e+00 0 0 0
293 1 1 1.1678409558433822e+00 5.1900905141395760e-02 -3.2744226644595367e+00 0 0 0
93 1 2 2.5821813713468118e+00 1.0306317963058707e+00 -1.9541445100831158e+00 0 0 0
172 1 1 2.4998851451168220e+00 1.4182989124040257e+00 -1.8293289602000518e+00 0 0 0
305 1 1 3.6822189269378671e+00 9.8103314603921588e-01 -2.9134525342264141e+00 0 0 0
121 1 2 3.5740788130631511e+00 7.1131239202540475e-01 -1.7151185921917214e+00 0 0 0
446 1 1 3.5796852087989310e+00 8.6891916181392426e-01 -1.9327610611984678e+00 0 0 0
488 1 1 -3.6839805062987439e+00 2.5898416387571788e-01 -1.4877164582463895e+00 0 0 0
78 1 2 -2.5454602924354921e+00 1.9614279029592303e+00 -1.3535229484437152e+00 0 0 0
335 1 1 -2.3081749762611068e+00 1.5452780671897521e+00 -1.4643296043580880e+00 0 0 0
465 1 1 -2.1709010030008842e+00 5.8623767319252847e-02 -1.3801318075947124e+00 0 0 0
208 1 1 -2.4387680589900604e+00 6.8682266387121908e-04 -1.5107711974698264e+00 0 0 0
65 1 2 -2.7390116760590746e+00 4.9624578402040348e-01 -2.7828821604316931e+00 0 0 0
313 1 1 -2.4864609343021526e+00 8.7773618687561938e-01 -2.3187400334337176e+00 0 0 0
128 1 1 -3.1147416827671259e-01 4.9871334608277557e-01 -2.1253675121995235e+00 0 0 0
327 1 1 -2.2737822886843440e-01 5.8454635522120080e-01 -2.1439315598323812e+00 0 0 0
419 1 1 3.3067597643184993e-01 8.8775538280714783e-01 -3.1562687726817917e+00 0 0 0
118 1 1 1.6836632132294485e+00 1.2517127311559324e+00 -7.6792357467970751e-01 0 0 0
351 1 1 1.6956680031523761e+00 1.1748912649883634e+00 -6.5838535388044961e-01 0 0 0
415 1 1 1.6208094062636662e+00 8.1851669645150371e-01 -2.8955959093067523e+00 0 0 0
2 1 2 2.3461017769025090e+00 2.6377407937988551e+00 -1.6603265650513375e+00 0 0 0
290 1 1 1.7882560139705574e+00 2.4224017664181532e+00 -1.9323741742236553e+00 0 0 0
496 1 1 -2.9417178511202118e+00 2.3193181213899576e+00 -6.0808392984509219e-01 0 0 0
221 1 1 -3.4971262778759051e+00 1.1049955031288308e+00 -2.4525996975141533e+00 0 0 0
23 1 2 -2.2883854915391066e+00 3.0223507260493925e+00 -9.3358777976936169e-01 0 0 0
218 1 1 -1.3850259841003028e+00 6.6566420639979285e-01 -2.0333532027315506e+00 0 0 0
87 1 2 -1.7401076135684868e+00 7.8386845277560879e-01 -2.1758394895867741e+00 0 0 0
436 1 1 -1.6231142999749482e+00 2.6522757845986598e+00 -1.8228648584661444e+00 0 0 0
5 1 2 -6.6299774366131314e-01 1.3482663777916628e+00 -2.7811362147720611e+00 0 0 0
443 1 1 -6.8222787707754928e-01 1.2996227925620132e+00 -2.6320529072227008e+00 0 0 0
29 1 2 -6.5313717334498111e-01 2.1046101776188846e+00 -1.8730793071719458e+00 0 0 0
471 1 1 -3.9957014794373075e-01 1.2597403270477743e+00 -1.0622729147752352e+00 0 0 0
175 1 1 -1.2940030957072732e+00 1.8358386887688385e+00 -1.1002680014259727e+00 0 0 0
92 1 2 -1.2332003233752979e+00 1.8061948742317775e+00 -9.9493161962764687e-01 0 0 0
231 1 1 2.5977261063389756e-01 1.4147030545719927e+00 -2.1458609361035559e+00 0 0 0
309 1 1 1.1013788928425101e+00 1.8392459781551203e+00 -2.7079563241052806e+00 0 0 0
185 1 1 -6.0439299615739894e-01 2.2511444639281470e+00 -1.7756111493199411e+00 0 0 0
376 1 1 2.0175911316308777e+00 3.4214210181220124e+00 -1.6159506489752300e+00 0 0 0
70 1 2 1.0580066245988351e+00 1.9329554573048704e+00 -2.8262242669752911e+00 0 0 0
50 1 2 1.4315122327101895e+00 1.2119446122213897e+00 -1.9375419653367747e+00 0 0 0
254 1 1 1.4459298912739575e+00 2.4060526732753726e+00 -8.4830987329398044e-01 0 0 0
424 1 1 3.4362947088373343e+00 2.0966328011045818e+00 -3.1962576738478278e-02 0 0 0
150 1 2 3.3548366079078140e+00 1.6836824745511274e+00 -1.3511725125641156e+00 0 0 0
449 1 1 -2.1358788204552779e+00 2.9402632067015224e+00 -6.7701360864582694e-01 0 0 0
418 1 1 -2.0258278425212302e+00 4.0115286685144103e+00 -3.4780546701557657e-01 0 0 0
448 1 1 -9.6965886359167786e-01 2.8804925314391605e+00 -1.0035303387727814e+00 0 0 0
312 1 1 -8.2718211037856551e-02 2.9804514336561425e+00 -1.4554322339302039e+00 0 0 0
267 1 1 1.9319894018119776e+00 2.2673588159108848e+00 1.1209211086327724e-01 0 0 0
349 1 1 3.2391196111463314e+00 1.8743629982425796e+00 -2.3436920938473027e+00 0 0 0
260 1 1 -5.7965342857576185e-01 3.8923882663222327e+00 -1.2599348075363861e+00 0 0 0
297 1 1 7.8575506437216636e-01 4.5418573220993794e+00 -1.0171025965357747e+00 0 0 0
19 1 1 -9.1074381104829594e-01 -2.8485654808205663e+00 -2.8621108813930302e-01 0 0 0
484 1 1 -4.1239218721774767e-01 -3.6982594739286787e+00 6.5702896781092224e-01 0 0 0
269 1 1 3.0853794944306262e-01 -3.6612962698581080e+00 -1.1867167897755910e+00 0 0 0
279 1 1 -4.7870207443889923e+00 -2.5993877391642228e+00 -1.0230875288111432e+00 0 0 0
289 1 1 -1.9342692195126128e+00 -3.5314135005216634e+00 -2.3597851544441720e-01 0 0 0
1 1 1 -1.3467354747522455e+00 -2.8667090217123592e+00 -1.5057014406766969e+00 0 0 0
288 1 1 -9.2582685959235500e-01 -4.5574505045518796e+00 -7.7142449739310365e-02 0 0 0
404 1 1 -1.3135508952896935e+00 -2.8879694405584302e+00 -1.3471196942178325e+00 0 0 0
383 1 1 3.6504777747736378e-01 -3.1926520283158712e+00 -2.0860635232635940e+00 0 0 0
246 1 1 -2.5119944693434126e-01 -2.8253084664739410e+00 -1.1226580031516717e+00 0 0 0
454 1 1 8.5756659371041455e-01 -2.6897376248815177e+00 -1.3166450991739076e+00 0 0 0
14 1 2 1.1397826818424308e+00 -1.9648087200843172e+00 -1.4465844357054662e+00 0 0 0
47 1 2 1.9386896518597033e-01 -3.7408563343242585e+00 4.0071800383833740e-02 0 0 0
209 1 1 2.5133285718137897e+00 -2.1423169488148024e+00 -9.7669688929582343e-01 0 0 0
111 1 1 2.4151987645021809e+00 -2.0816426862233666e+00 -1.4172262182996600e+00 0 0 0
167 1 1 4.0899411091243350e+00 -1.8850240842019659e+00 -6.4437205442435963e-01 0 0 0
142 1 2 -3.6053924588584896e+00 -2.7565925595308229e+00 -1.0769876838764356e+00 0 0 0
332 1 1 -3.0359370076644132e+00 -1.5334925995384916e+00 -4.4659222166937346e-01 0 0 0
18 1 2 -2.7655798469616553e+00 -1.4917934931554333e+00 -4.9317557117417321e-01 0 0 0
380 1 1 -1.1080628572842366e+00 -1.9063621542748532e+00 -8.6804658628296738e-01 0 0 0
400 1 1 -1.0932032047968525e+00 -1.8854634132363901e+00 -8.0611335651858440e-01 0 0 0
194 1 1 -2.0926512929052987e+00 -2.3177606985508885e+00 -9.1484700147105136e-01 0 0 0
140 1 2 -2.4308169357816074e+00 -2.2494383478373834e+00 -1.1715776678966814e+00 0 0 0
291 1 1 3.1603417601943677e-02 -1.7643491450107620e+00 -1.1603498006637711e+00 0 0 0
94 1 2 5.4483122780851927e-02 -1.7000069228226278e+00 -1.3149531434159216e+00 0 0 0
375 1 1 1.7724951399628373e+00 -1.3754583372520839e+00 -4.8358841256276641e-01 0 0 0
49 1 2 1.8281529848999378e+00 -1.5624847781192694e+00 -6.3780136153616485e-01 0 0 0
81 1 2 2.6880758020731705e+00 -5.8301082778286684e-01 -4.3654340583963558e-01 0 0 0
359 1 1 2.4702415529225408e+00 -4.5398112346766301e-01 -4.7476392463131606e-01 0 0 0
64 1 2 3.2420332668038752e+00 -1.3062728132640453e+00 -1.1136773592546811e+00 0 0 0
80 1 2 -4.0284371340237533e+00 -1.4156428545652648e+00 -6.5868204171971223e-01 0 0 0
470 1 1 -4.0644691833400204e+00 -1.7011685230163891e+00 -4.4806531799204247e-01 0 0 0
39 1 2 -2.9092354922339672e+00 -4.8524660784123086e-01 -7.2157271315581772e-01 0 0 0
432 1 1 -2.9626557031173961e+00 -3.8922211674589463e-01 -7.3914441842032030e-01 0 0 0
478 1 1 -1.7876270632401081e+00 -1.0976995897162223e+00 -1.0459602903536334e+00 0 0 0
127 1 2 -1.9096229888907068e+00 -1.2010153894764137e+00 -1.0526044657050551e+00 0 0 0
466 1 1 -1.8415857210410667e+00 -1.7114343177309616e-01 -3.0024114372480643e-01 0 0 0
153 1 1 -1.9559838458329761e+00 -2.3074140911434901e-01 -4.1895332251678902e-01 0 0 0
48 1 2 -4.0242834336223465e-01 -7.7126508734358568e-01 -6.7313472655184003e-01 0 0 0
370 1 1 -4.0765158375140220e-01 -7.8750591514785917e-01 -7.6651099660667810e-01 0 0 0
487 1 1 1.0592422606353262e+00 -6.4318376402572641e-01 -1.4171507792880920e+00 0 0 0
110 1 2 1.1857985166359439e+00 -4.8558719947536022e-01 -1.5498944645414647e+00 0 0 0
304 1 1 2.9210227262009297e-01 -2.2488422561471721e-02 -3.9001414670699536e-01 0 0 0
86 1 2 4.4421683175597371e-01 -4.3603440645686539e-02 -5.2016572103667602e-01 0 0 0
240 1 1 2.7575021142357787e+00 5.4768508698276319e-01 -8.5093805977623715e-01 0 0 0
386 1 1 1.4152547592436242e+00 -1.6590494107001036e-01 -5.2087604640871688e-01 0 0 0
131 1 2 1.4717132458861584e+00 -1.2143152959562738e-01 -5.2166775856311864e-01 0 0 0
393 1 1 2.7217129950909591e+00 8.6066312780814647e-01 -8.7663241955373539e-01 0 0 0
398 1 1 3.0147200986580636e+00 -8.2718839926918239e-02 -1.8288305916475711e+00 0 0 0
108 1 2 2.9016751269279077e+00 -8.4944840470153216e-02 -1.7751183960655423e+00 0 0 0
311 1 1 3.6013933513999019e+00 -1.3115349846504851e+00 -3.1384512173502559e+00 0 0 0
234 1 1 2.6315476945491505e+00 -7.6022799859340973e-01 -3.1241081874239462e+00 0 0 0
437 1 1 -3.8262102433429281e+00 -1.1069654130728031e+00 -1.3780841611479280e+00 0 0 0
139 1 2 -3.5665453574708970e+00 -8.1859823886311323e-01 1.3776187981532881e-01 0 0 0
462 1 1 -3.9743456036024418e+00 -1.3447737450600999e-01 -5.1850982034743243e-01 0 0 0
451 1 1 -2.6186526334258731e+00 8.6248426010891055e-01 -6.3765057027717764e-01 0 0 0
66 1 2 -2.9930886922657272e+00 8.2799975080076549e-01 -1.1217195693625845e+00 0 0 0
407 1 1 -1.4892263618068997e+00 8.6008209412115499e-01 -8.1889910346258099e-01 0 0 0
235 1 1 -1.5549684398498380e+00 8.4777801751983461e-01 -9.2511913165894011e-01 0 0 0
356 1 1 -1.8543944975398039e+00 8.0103438710326713e-01 1.4867439434407137e-01 0 0 0
74 1 2 -8.7447655590961471e-01 7.2017221664720549e-02 -1.2548610348996787e+00 0 0 0
399 1 1 -3.0829625949711631e-01 3.1553043456029811e-01 -1.1304322982516615e+00 0 0 0
395 1 1 -3.0070531489626993e-02 1.0395843096921003e+00 -1.6743195467660274e-01 0 0 0
396 1 1 6.3945489386558063e-01 8.3095033196733270e-01 -1.1296628332165684e+00 0 0 0
282 1 1 6.3448081731383588e-01 7.6277264806251466e-01 -1.1428012989527279e+00 0 0 0
346 1 1 1.6611354297180034e+00 1.2702019125365864e+00 4.7017029449236480e-01 0 0 0
99 1 2 1.7498218085004464e+00 1.2536868260442149e+00 5.5345236646053764e-01 0 0 0
62 1 2 2.5665027934580196e+00 1.4429716142231723e+00 -1.3639302689559818e-01 0 0 0
344 1 1 2.8543047799761720e+00 1.5095467202490640e+00 7.0802508088248417e-01 0 0 0
365 1 1 4.3549795578052519e+00 7.2901000252647419e-01 -9.9812216385279706e-01 0 0 0
184 1 1 -3.9919252496507829e+00 2.0062572802361358e+00 -6.3148532555217618e-01 0 0 0
132 1 2 -3.1326669043075870e+00 2.1695874957381212e+00 4.9811409598458312e-02 0 0 0
429 1 1 -3.2720674134595074e+00 1.9409541981870897e+00 1.0982928559967886e+00 0 0 0
355 1 1 -2.0399377601562114e+00 1.7382292221591562e+00 -1.9272833648901555e-01 0 0 0
133 1 2 -2.0882782855382858e+00 1.7490523587272322e+00 -3.0057820921716533e-01 0 0 0
138 1 2 -4.9680034258029421e-01 9.3846202637658627e-01 -1.0449117235835752e+00 0 0 0
490 1 1 -6.1767516529773123e-02 2.4193705386659161e+00 -4.5970938319603838e-01 0 0 0
479 1 1 -1.0349003202973617e+00 1.5670784619448899e+00 -1.2304289841063829e-01 0 0 0
476 1 1 5.9060559728043405e-01 1.9157407650716940e+00 -1.3014748468759061e+00 0 0 0
134 1 1 6.2586277020331282e-01 1.9674489676156290e+00 -1.2173407466968960e+00 0 0 0
371 1 1 7.9274957235761256e-01 2.8510249778359000e+00 2.2766933312785334e-01 0 0 0
295 1 1 1.4349696903882714e+00 1.1922281936770562e+00 -1.9048666463919972e+00 0 0 0
171 1 1 1.9830570070513818e+00 2.9888480436042850e+00 8.8853956300375947e-01 0 0 0
71 1 2 7.5110543587940848e-01 1.7341654816551333e+00 -1.1786705836554805e-01 0 0 0
337 1 1 9.9802325176402762e-01 1.7355652417188923e+00 -1.3185271790223463e-01 0 0 0
148 1 2 2.4207334081932688e+00 1.9768358499205252e+00 -9.4362972343795659e-01 0 0 0
248 1 1 2.5419585783178604e+00 2.1658232532359225e+00 -7.8645104461771698e-01 0 0 0
222 1 1 -2.8419367713687689e+00 3.2930046124252179e+00 1.9979341674776838e-01 0 0 0
40 1 2 -1.4121528498358469e+00 2.6616380532756523e+00 -5.9282430007571468e-02 0 0 0
350 1 1 -1.2441950840615041e+00 2.7781161428571441e+00 2.7870770733990469e-02 0 0 0
104 1 2 -3.3339128145270364e-01 2.2699776547857038e+00 -6.8551279612284044e-01 0 0 0
330 1 1 -9.9692686095077165e-01 2.9942233513050827e+00 -9.5906845751676761e-01 0 0 0
101 1 2 -1.1469414864144023e+00 2.4019161146320784e+00 8.2248994623541538e-01 0 0 0
189 1 1 5.9056208235112451e-01 4.0957992145595448e+00 3.0445382020516071e-01 0 0 0
3 1 2 6.9932569865998395e-01 2.8692027171277723e+00 2.9953785294066598e-01 0 0 0
160 1 1 1.8717674608163732e+00 3.1766491369721042e+00 -4.2449242031909007e-01 0 0 0
16 1 2 2.0538686340270358e+00 2.3345750535263425e+00 3.3693595809525512e-01 0 0 0
250 1 1 1.3507228929258777e+00 2.0305618015223303e+00 2.1282151124253819e+00 0 0 0
130 1 2 1.2321488677767798e+00 2.1123741085763230e+00 2.1846027240172861e+00 0 0 0
27 1 2 -4.5134067341072259e-01 3.4795602965420862e+00 3.3777539231205927e-01 0 0 0
389 1 1 -3.8775404951911596e-01 3.0820957539268314e+00 6.3590993555878328e-01 0 0 0
410 1 1 2.5251291499994816e-01 3.7196640038982367e+00 -5.2291979576858272e-01 0 0 0
41 1 2 4.2161154699365294e-01 3.1871118679185360e+00 -6.9641151946012059e-01 0 0 0
85 1 2 1.6952374091739171e+00 3.5144929835516159e+00 -2.2743131685903945e-02 0 0 0
453 1 1 1.5704451469643028e+00 4.4631758688281584e+00 -1.6495938003911659e-01 0 0 0
387 1 1 2.1527751388696961e-01 -3.3996920117363869e+00 -1.2043871891346282e-01 0 0 0
469 1 1 -3.5597235320739511e+00 -2.2864191733672596e+00 -1.0972285055396411e+00 0 0 0
272 1 1 -3.0983198433637500e+00 -3.9794240803430503e+00 -6.3267073584460196e-02 0 0 0
137 1 2 -2.8716666304944276e+00 -3.1402619382228334e+00 1.6586512825351488e-01 0 0 0
253 1 1 -1.4767549965555093e+00 -3.2298821890161005e+00 7.8195150324083962e-01 0 0 0
463 1 1 -6.9505459457850671e-01 -2.7755557570795637e+00 -9.1940402016499903e-02 0 0 0
117 1 2 -1.7890658085534710e+00 -3.3868635663381284e+00 -2.6297869966859622e-01 0 0 0
60 1 2 -1.1709250320816321e-01 -2.7991695309344946e+00 -8.7547468634286285e-01 0 0 0
97 1 2 -2.7821357281327407e-02 -2.7004612445706493e+00 7.1843731282726520e-01 0 0 0
210 1 1 -3.1494712715209533e-01 -2.3284544693961871e+00 1.0267434554885793e+00 0 0 0
422 1 1 1.8434193513624106e+00 -3.1542405499208290e+00 -4.5924170387728064e-01 0 0 0
188 1 1 6.3978649915556141e-01 -2.8962290652430411e+00 8.3178470197041976e-01 0 0 0
472 1 1 -2.4552741487195910e+00 -3.3516767356060329e+00 -1.2259510684827903e+00 0 0 0
314 1 1 -3.7325460067824907e+00 -2.5271362920314377e+00 -3.9777703703507757e-02 0 0 0
195 1 1 -1.8894726676856575e+00 -1.9644868801534190e+00 -2.0490818668906521e-02 0 0 0
68 1 2 -1.8295767553861786e+00 -2.1684740915223712e+00 1.7043036631369249e-01 0 0 0
244 1 1 -2.6683873875797459e-01 -1.6746330809970438e+00 -9.9305598807191836e-02 0 0 0
233 1 1 -2.3387474470884675e-01 -1.7447964623349879e+00 -3.0912192703690649e-03 0 0 0
445 1 1 7.8436813436611363e-01 -2.2752539210699410e+00 -3.3930227171672933e-01 0 0 0
215 1 1 8.4546010765746860e-01 -2.4445572673399156e+00 -3.2624136588997249e-01 0 0 0
216 1 1 1.0924916750329554e+00 -1.6372981640752682e+00 4.7209048278797361e-01 0 0 0
385 1 1 1.0887722397809834e+00 -1.7270558238258558e+00 6.7491869705682417e-01 0 0 0
480 1 1 2.3086713884026269e+00 -2.1978099881767728e+00 1.9043956581415769e-01 0 0 0
481 1 1 2.7892932174464722e+00 -1.5716089624871330e+00 3.9461890156847812e-01 0 0 0
219 1 1 3.2229290348645203e+00 -1.1107481073310961e+00 -1.1503515641612438e+00 0 0 0
336 1 1 -2.9317776877148445e+00 -2.1160954955411651e+00 1.7147222517730145e+00 0 0 0
180 1 1 -3.5046590539080551e+00 -8.6438357011612121e-01 2.5713789140358967e-01 0 0 0
262 1 1 -2.3520948931919263e+00 -1.0407130219179699e+00 3.2874232935987974e-01 0 0 0
63 1 2 -2.3689953827310979e+00 -9.4017238572938588e-01 3.6343503960014889e-01 0 0 0
199 1 1 -2.8119533056493924e+00 -9.0296689192837465e-01 1.5872754412138737e+00 0 0 0
197 1 1 -3.3141948124171576e+00 -2.0655448985543789e+00 7.0212817096609015e-01 0 0 0
482 1 1 -1.2625775084938278e+00 -1.0277340115059597e+00 -1.3761221168486362e-01 0 0 0
493 1 1 -1.3300364265164013e+00 -2.8319036681234516e-01 7.1610373148401640e-01 0 0 0
145 1 2 -1.3724971062650673e+00 -2.6941118429105826e-01 6.8712326955718017e-01 0 0 0
10 1 1 -1.2694296787591339e+00 -1.0292592068634463e+00 -8.8107821784139950e-02 0 0 0
187 1 1 -7.9244207351065432e-01 1.8184186409791289e-01 -1.1411593732266585e-01 0 0 0
191 1 1 -4.3184505712086779e-01 -6.2737155665414801e-01 4.6027511302869245e-01 0 0 0
492 1 1 2.8578780706674606e-01 1.9167289746718094e-01 7.8385045593761504e-01 0 0 0
242 1 1 7.7539703516275627e-01 -1.2761060438106373e+00 -5.8613736941887384e-01 0 0 0
263 1 1 6.0360796714749854e-01 -1.2120497763222970e+00 -5.4705712716094546e-01 0 0 0
324 1 1 7.1903443068157025e-01 -6.0036775654321994e-01 4.8491839269119486e-01 0 0 0
397 1 1 8.2473654581031131e-01 -6.6488057179701587e-01 3.9667738114886780e-01 0 0 0
103 1 2 1.8568355609456233e+00 -7.3294325944952643e-01 5.4624666996346360e-01 0 0 0
452 1 1 1.9177510951750583e+00 -6.5369743483360254e-01 3.6068357448757327e-01 0 0 0
58 1 2 3.9161084332991809e+00 -5.0315208826574609e-01 -2.5017336721085579e+00 0 0 0
270 1 1 4.3440505465196431e+00 -1.1134417441537787e+00 -1.3565864305010626e+00 0 0 0
354 1 1 4.4545869424041324e+00 1.0126477722332297e-01 -1.8455689627532339e+00 0 0 0
107 1 2 2.9735600643762492e+00 -3.5743578857489933e-01 7.5685898462915413e-01 0 0 0
261 1 1 3.6172085444171529e+00 -9.3730318136791252e-02 -9.1491312890825194e-01 0 0 0
198 1 1 -3.6100201919097228e+00 5.0103512431321273e-01 5.0226286003831366e-01 0 0 0
120 1 2 -2.7551724806861198e+00 1.8863680746190103e-02 2.9792864553505566e-01 0 0 0
315 1 1 -2.6593078852227925e+00 7.0729563366674936e-02 3.7271020540170946e-01 0 0 0
89 1 2 -2.7609963380729732e+00 -3.5717665871667992e-01 1.3470428508501140e+00 0 0 0
353 1 1 -1.7456025192430027e+00 8.2278764265622450e-01 2.1741039922241112e-01 0 0 0
435 1 1 -1.9646671452101374e+00 4.4597724597611432e-01 1.1442053524629974e+00 0 0 0
499 1 1 -2.0249682839350087e+00 4.5352137219600852e-01 1.1700329913671508e+00 0 0 0
348 1 1 -6.8260677872299239e-02 1.0898111095767324e+00 -5.9959715532953241e-02 0 0 0
36 1 2 -8.8531711927621159e-01 3.0617476331844401e-01 -8.8496797376994188e-02 0 0 0
276 1 1 -8.5520020763627713e-01 7.8024878304526835e-01 8.6024487545316941e-01 0 0 0
345 1 1 -8.5578482729172245e-01 8.0734856475206795e-01 9.1487348798512569e-01 0 0 0
124 1 2 1.1160115926214940e-01 2.1549213760677957e-01 7.8031137325400957e-01 0 0 0
143 1 2 9.6296917920755010e-01 7.3190505282468343e-01 3.4076676960007893e-02 0 0 0
486 1 1 9.8817894704772735e-01 5.9035891784114247e-01 6.5423645328441082e-02 0 0 0
303 1 1 2.1667134186931554e+00 3.7104903120008892e-01 1.0064369407213825e-01 0 0 0
151 1 2 2.1755753743887136e+00 4.5902996849433392e-01 1.4401179602099759e-01 0 0 0
56 1 2 2.1352609584734950e+00 6.4818945021410601e-01 1.2251204664354525e+00 0 0 0
201 1 1 2.2913824407483565e+00 3.9763634374077883e-01 1.2063707447770435e+00 0 0 0
83 1 2 2.1984162939067664e+00 1.8482428603826251e+00 1.2558376955672761e+00 0 0 0
333 1 1 2.9158083388154528e+00 -4.3637515616032468e-01 5.7957202295696730e-01 0 0 0
141 1 1 -3.6873265682485745e+00 1.0870107511685756e+00 9.4923683842702583e-02 0 0 0
38 1 2 -2.7073199686472953e+00 1.2624635951511249e+00 5.8442126092302660e-01 0 0 0
405 1 1 -4.1592083856284949e+00 1.6396628575304246e+00 4.4192716274721056e-01 0 0 0
341 1 1 -2.5981682292226709e+00 1.3081270916609571e+00 6.5981946812533132e-01 0 0 0
20 1 2 -1.5440445771479381e+00 1.5214828641384759e+00 1.1009370060661645e+00 0 0 0
377 1 1 -1.5791613981587045e+00 1.4683711158881638e+00 9.5670908869448890e-01 0 0 0
378 1 1 4.0374564817738212e-02 2.0336711095044318e+00 6.6844709050106710e-01 0 0 0
46 1 2 -5.1596209294429807e-01 1.5725723687913542e+00 1.5942589141351204e+00 0 0 0
12 1 2 6.7015784522458921e-01 1.2459373162598770e+00 8.9122250367303935e-01 0 0 0
431 1 1 6.5666501050682013e-01 1.1635623828737360e+00 1.0507317199517059e+00 0 0 0
489 1 1 1.0741223457901100e-01 2.6073878727270361e+00 1.6789233479654744e+00 0 0 0
229 1 1 2.2592681023468515e+00 2.2817241982234107e+00 1.5395678556344807e+00 0 0 0
292 1 1 1.3765228387065380e+00 1.1517110140701248e+00 1.7812367484828437e+00 0 0 0
367 1 1 2.8348384467494032e+00 2.9634902200864164e+00 1.8706934289457469e+00 0 0 0
306 1 1 3.2582011761613572e+00 6.3337982876797705e-01 1.5607261605884531e-01 0 0 0
179 1 1 -3.5633372217017278e+00 2.9571106513293191e+00 1.2045776369179111e+00 0 0 0
24 1 2 -2.7543674476261439e+00 2.7843125271368314e+00 1.5734950962283381e+00 0 0 0
408 1 1 -2.1800601153926764e+00 2.2859112826207388e+00 8.6895394029832929e-01 0 0 0
444 1 1 -1.9810113153074054e+00 1.5406588784010973e+00 2.0930920489197171e+00 0 0 0
308 1 1 -1.2284496946049259e+00 2.5514039863590487e+00 1.1499417415778646e+00 0 0 0
447 1 1 -8.1016430391069938e-01 3.4227137110083836e+00 1.7095857975563260e+00 0 0 0
477 1 1 -1.9686757012946959e-01 1.8647518909353729e+00 6.7393313726074267e-01 0 0 0
228 1 1 1.0402155684615546e+00 2.1384493126303967e+00 1.0734665322877890e+00 0 0 0
423 1 1 7.7734133939940842e-01 2.9084315854291281e+00 2.7405149264859867e+00 0 0 0