LAMMPS data file via write_data, version 3 Mar 2020, timestep = 1000000

500 atoms
2 atom types
549 bonds
1 bond types

-1.9609999999999999e+01 1.9609999999999999e+01 xlo xhi
-1.9609999999999999e+01 1.9609999999999999e+01 ylo yhi
-1.9609999999999999e+01 1.9609999999999999e+01 zlo zhi

Masses

1 1
2 1

Atoms # bond

76 1 1 -1.8686611810926088e+00 1.3607258083882814e+00 -3.4845683507668310e+00 0 0 0
183 1 1 1.5783731424005008e+00 4.7474283330928407e-01 -4.1380659392866557e+00 0 0 0
312 1 1 6.1185866583387138e-01 6.9558312160661284e-01 -3.6561619310809239e+00 0 0 0
144 1 1 2.2237177991009323e+00 8.9461872345940363e-01 -3.5905897624120739e+00 0 0 0
157 1 1 2.5056255761592512e+00 1.4897714547253695e+00 -3.5899853520947125e+00 0 0 0
500 1 1 2.3753417290545862e+00 1.9785719741693701e+00 -3.3032313023023550e+00 0 0 0
174 1 1 -2.0524351282746127e+00 2.0874524754231301e+00 -3.6780140248250772e+00 0 0 0
231 1 1 -7.6764091109076138e-01 7.0879468461906581e-01 -4.1882057178046868e+00 0 0 0
499 1 1 -2.7315753372009657e+00 -1.2490769401972204e+00 -2.7316044817511522e+00 0 0 0
401 1 1 -2.4148586546714372e+00 -2.1544807458273514e+00 -2.5556793593215366e+00 0 0 0
8 1 2 -2.3027279431252219e+00 -2.1559714084996076e+00 -2.8300880783052693e+00 0 0 0
376 1 1 -9.8006920543766074e-01 -1.9461256775556730e+00 -3.1855360479507193e+00 0 0 0
415 1 1 -1.8800916680286210e+00 -1.2271185148651991e+00 -2.1355272635300748e+00 0 0 0
310 1 1 3.5956280563064486e-01 -1.6218437266585046e+00 -2.2557455121506536e+00 0 0 0
441 1 1 -7.0520918003917243e-01 -5.7534590564589416e-01 -3.5502702149606953e+00 0 0 0
148 1 1 -1.8052577471087619e+00 -1.2170910410531515e+00 -3.4296713683545632e+00 0 0 0
214 1 1 -1.9525519372627289e+00 -2.4681121992458832e-01 -3.0405270849749280e+00 0 0 0
233 1 1 -4.6267902007634293e-01 -4.7647799954966735e-01 -3.7226513913779908e+00 0 0 0
474 1 1 -1.0539302164233402e+00 5.5578174740780972e-01 -3.1756135625400765e+00 0 0 0
182 1 1 -1.7079952432766582e-01 -1.3340525473196732e+00 -3.2239793944924040e+00 0 0 0
110 1 1 2.0759379120029101e-01 -2.0115951495380154e-03 -2.7496628367572535e+00 0 0 0
419 1 1 1.9418123508960777e-01 -3.0141279876699833e-03 -3.0788009507866008e+00 0 0 0
21 1 2 1.3973053458975864e+00 9.7997631672546881e-02 -2.9207730278073871e+00 0 0 0
96 1 1 1.0656772494360431e+00 -1.4213157883867651e+00 -3.1293270160773758e+00 0 0 0
215 1 1 5.6360392198297649e-01 -5.2089439943871185e-01 -3.6745429819072819e+00 0 0 0
492 1 1 -2.0743613005041661e+00 8.2497369004154464e-01 -2.4822561171475024e+00 0 0 0
245 1 1 -2.3833858052411578e+00 1.1680312471374605e+00 -2.6735687746215531e+00 0 0 0
399 1 1 -1.6100392934638258e-01 1.2254653819528287e+00 -2.8983648074623858e+00 0 0 0
97 1 1 -9.0869874127241645e-01 5.0880970419368055e-01 -3.1291559729546541e+00 0 0 0
217 1 1 -6.2258518170896886e-02 1.1824823402086921e+00 -2.9856342741258066e+00 0 0 0
469 1 1 1.1254517784127613e+00 1.4874745231084352e+00 -3.2530093364897357e+00 0 0 0
365 1 1 1.3689238045628196e+00 1.7292603267552726e+00 -3.4236895419927298e+00 0 0 0
422 1 1 1.3785541303403586e+00 3.3108401907668650e-01 -2.9652050312249814e+00 0 0 0
395 1 1 2.1089380329115608e+00 2.2215278926410242e+00 -1.3435644413530470e+00 0 0 0
19 1 2 -1.2283207470310327e+00 1.3558926701772260e+00 -2.4878646389608794e+00 0 0 0
317 1 1 -2.0270419718720758e+00 1.9040008371430939e+00 -2.0147745827927639e+00 0 0 0
294 1 1 -9.9899164482440339e-01 2.5303795873282833e+00 -2.7222476190271028e+00 0 0 0
385 1 1 -1.1832672188790299e+00 1.3397128876708140e+00 -2.4864323926224050e+00 0 0 0
459 1 1 -1.3478112115063507e+00 2.7407884129445002e+00 -2.7657699642256661e+00 0 0 0
483 1 1 3.8280639415675860e-01 2.2520264292292258e+00 -3.5972688042482859e+00 0 0 0
389 1 1 2.9291659354577049e-01 2.8022488624298383e+00 -3.4407803012744518e+00 0 0 0
50 1 2 3.4723491097760861e-01 3.6470981578716062e+00 -3.0938209840287194e+00 0 0 0
478 1 1 3.7602750389716511e-01 3.8464603519400913e+00 -2.9764180834306058e+00 0 0 0
244 1 1 1.8959663755203029e+00 2.2843567898586610e+00 -2.4693951806568455e+00 0 0 0
222 1 1 1.7165131504629987e+00 2.2480048503041297e+00 -2.4555460790929962e+00 0 0 0
33 1 2 -2.1189669307317125e+00 2.9736861408642965e+00 -1.8422683173924346e+00 0 0 0
210 1 1 -2.7370798599463941e+00 9.4515714403828865e-01 -1.5068629589826465e+00 0 0 0
225 1 1 1.3050752874990268e+00 2.7680163711502743e+00 -3.6093493078023298e+00 0 0 0
208 1 1 -1.1768820645468689e-01 2.9214674523470148e+00 -2.2080343379817884e+00 0 0 0
361 1 1 -1.6582573049598279e+00 -2.6862182696205523e+00 -2.2608406060339066e+00 0 0 0
457 1 1 1.3983014727725213e-01 -3.3780536648802504e+00 -1.2899617384388913e+00 0 0 0
438 1 1 -1.9223498032147468e+00 -3.1584409824800161e+00 -1.3221230860405355e+00 0 0 0
331 1 1 -2.9362857840632732e+00 -2.6812444737502363e+00 -1.6861282300838576e+00 0 0 0
491 1 1 -2.6647975514171698e+00 -2.5786754026289600e+00 -1.8228885688704632e+00 0 0 0
133 1 1 4.7874014150190580e-01 -1.8424182043059150e+00 -2.3503459362198695e+00 0 0 0
36 1 2 -8.4199542362180513e-01 -3.0372287114830430e+00 -1.5079256161743653e+00 0 0 0
368 1 1 -2.1717190996738880e-01 -3.3078328480984411e+00 -2.4728882418084401e+00 0 0 0
367 1 1 -1.8907753534795984e+00 -2.0143929014010542e+00 -1.4209656113633673e+00 0 0 0
45 1 2 -1.7370272408689582e+00 -1.3160657242527209e+00 -2.2848798706414040e+00 0 0 0
305 1 1 -1.8433068819093599e+00 -2.0762994944381781e+00 -1.3983670561632442e+00 0 0 0
61 1 1 -8.1146721524119048e-01 -2.9222023227608593e+00 -1.6073884243928211e+00 0 0 0
375 1 1 -8.7655556016244707e-01 -2.0622690185225316e+00 -1.9976851954995090e+00 0 0 0
203 1 1 -7.8836373644217883e-01 -2.0175235784212879e+00 -2.2170557638244661e+00 0 0 0
25 1 2 1.8033479857468149e-01 -2.2277845518973582e+00 -1.4771579797685070e+00 0 0 0
62 1 1 1.9454253012465594e-01 -2.3995330555746661e+00 -1.4746304170483033e+00 0 0 0
250 1 1 1.1637532573808502e+00 -1.6038177801024391e+00 -1.6501897641565126e+00 0 0 0
454 1 1 1.1680923680025348e+00 -1.6091589877865868e+00 -1.5650487247004996e+00 0 0 0
388 1 1 2.4455890131352978e+00 -2.7816056462478578e+00 -6.2272843467440753e-01 0 0 0
42 1 2 2.2279864202105202e+00 -2.1447750665358325e+00 -1.9053058830662655e+00 0 0 0
428 1 1 -2.8081180935561583e+00 -1.6454021713386933e+00 -1.5293035300749560e+00 0 0 0
248 1 1 -2.9915067250592857e+00 -1.2541780285600339e+00 -2.5815326899571747e+00 0 0 0
219 1 1 -2.2710551256222957e+00 -8.9618488128355911e-01 -1.1055902061434164e+00 0 0 0
316 1 1 -2.2569167431288402e+00 -7.6379949663935798e-01 -1.2568884840492920e+00 0 0 0
143 1 1 -3.6967029822714230e+00 -8.6554410200345522e-01 -1.6076590297708402e+00 0 0 0
88 1 1 -1.1810086680798231e+00 -1.2416271315288179e+00 -1.3529395023236919e+00 0 0 0
194 1 1 -1.0503182146475603e+00 -1.1959415818673920e+00 -1.4606546752144953e+00 0 0 0
297 1 1 1.9629276779395199e-01 -1.2369946806683103e+00 -1.2977924590342935e+00 0 0 0
199 1 1 1.9265229923491264e-01 -1.1798908465426281e+00 -1.3383932058379073e+00 0 0 0
238 1 1 -5.8583396285856726e-01 -8.0332745279719420e-01 -2.2720479999903622e+00 0 0 0
38 1 2 -3.2432958388759331e-01 -8.0006926729611771e-01 -2.1973062053087080e+00 0 0 0
7 1 2 8.7528295466452499e-01 -6.9442913216057223e-01 -2.3439446275251159e+00 0 0 0
364 1 1 9.4605234573767683e-01 -6.2836362748879215e-01 -2.4452516629588628e+00 0 0 0
275 1 1 2.8663081038563532e-01 -1.6090746676061554e-01 -1.6986130833196362e+00 0 0 0
39 1 2 2.8605468031822739e-01 -4.6231026792819797e-02 -1.6205807258990585e+00 0 0 0
409 1 1 1.8393724356083281e+00 -1.0419717370164721e+00 -2.0391450386386345e+00 0 0 0
390 1 1 1.9462208966992318e+00 -8.3303458828526167e-01 -1.9574710991597448e+00 0 0 0
163 1 1 1.4579647936904796e+00 -2.8388669607413477e+00 -2.7918436306227603e+00 0 0 0
93 1 1 2.3353309729843383e+00 3.6100345641103294e-02 -2.5324045039708238e+00 0 0 0
370 1 1 -2.6448563385625561e+00 -2.6949100204192306e-01 -2.2259130202459589e+00 0 0 0
307 1 1 -2.9384347659878505e+00 -2.4163723718389908e-02 -2.5586100013709858e+00 0 0 0
18 1 2 -1.5751836885971229e+00 -1.6813102030125274e-01 -1.9859812292186054e+00 0 0 0
265 1 1 -1.5317291201933614e+00 -2.2606902847379501e-01 -1.7433555775704814e+00 0 0 0
71 1 1 -1.4301215864669923e+00 8.2848495674546641e-01 -1.5408597701528819e+00 0 0 0
481 1 1 -1.6799071612981011e+00 9.1308361919656178e-01 -1.5228747650341887e+00 0 0 0
32 1 2 -5.4092100447413138e-01 4.2801155477848851e-01 -2.1387127116033131e+00 0 0 0
89 1 1 -6.7117784906138034e-01 4.5612760291939947e-01 -2.1599243897440386e+00 0 0 0
445 1 1 4.6819925873928814e-01 8.7689379911415011e-01 -2.1653746087137704e+00 0 0 0
288 1 1 4.8745959761717195e-01 8.5102290797646429e-01 -2.1118463358359958e+00 0 0 0
232 1 1 1.4205121174151478e+00 3.2472927026574744e-01 -1.7479086488867575e+00 0 0 0
118 1 1 1.4144543809631653e+00 3.3192051541403705e-01 -1.7441769896830646e+00 0 0 0
68 1 1 1.4538673025465432e+00 1.3731819511329884e+00 -1.6287536981684421e+00 0 0 0
65 1 1 1.7981524035800116e+00 9.9967557259104911e-01 -2.6555258404132775e+00 0 0 0
5 1 2 1.9653713484240645e+00 1.0429465216257257e+00 -2.4399026834808990e+00 0 0 0
475 1 1 3.2726722687291616e+00 4.2175824842447951e-01 -2.2237739932287459e+00 0 0 0
263 1 1 -2.7384993719364625e+00 6.9272451858403505e-01 -1.6398578033071747e+00 0 0 0
236 1 1 -1.7900962842567958e+00 1.9426102694252418e+00 -1.8057792448839063e+00 0 0 0
29 1 2 -2.9498257305841245e+00 1.8821395627227493e+00 -1.3153125972648412e+00 0 0 0
456 1 1 6.5557528632190909e-01 2.0885969569380092e+00 -2.5664978083242520e+00 0 0 0
347 1 1 -3.8023359055996753e-01 1.9342286427255830e+00 -2.0535139443781407e+00 0 0 0
102 1 1 -3.2134798724233782e-01 1.7149460200947297e+00 -1.9819622181706888e+00 0 0 0
156 1 1 7.0130613970534961e-01 2.0553719285441816e+00 -2.5204736072246976e+00 0 0 0
267 1 1 9.5809826698977085e-01 2.6414374700688081e+00 -1.5056435843414175e+00 0 0 0
173 1 1 1.0254410336955393e+00 2.5765156511921297e+00 -1.5476525311180931e+00 0 0 0
326 1 1 1.1193146711718811e+00 1.4558628949670593e+00 -1.6353131877839344e+00 0 0 0
476 1 1 2.0165620366275303e+00 3.3013786020934779e+00 -2.9467373983623877e+00 0 0 0
458 1 1 2.2778678969383908e+00 3.0200918952476523e+00 -1.5750756065128264e+00 0 0 0
452 1 1 2.3041402819491887e+00 3.1419403175402283e+00 -1.8502822212552696e+00 0 0 0
410 1 1 2.8921743487719538e+00 1.5276359459555120e+00 -2.3971940403559411e+00 0 0 0
345 1 1 -2.8780301188277533e+00 1.9818857872806916e+00 -1.3612463762533955e+00 0 0 0
200 1 1 -2.9400082805942538e+00 3.2792672088927888e+00 -1.2276376730725309e+00 0 0 0
336 1 1 -1.6978161565310250e+00 3.6378039424719626e+00 -1.0669407109867737e+00 0 0 0
266 1 1 -1.0591726131602366e+00 2.8266251437228838e+00 -1.5703630121741952e+00 0 0 0
74 1 1 -1.0995783253654727e+00 2.7509532403192298e+00 -1.6541172522350873e+00 0 0 0
384 1 1 -1.9245210375878421e-02 2.9207118666080594e+00 -2.2326384003779718e+00 0 0 0
324 1 1 2.4765357108042724e-01 4.2883223329204609e+00 -1.8579087552857683e+00 0 0 0
227 1 1 -1.1774309014614702e-01 4.0100745374948819e+00 -1.5963343096958409e+00 0 0 0
436 1 1 -1.8978825242353872e-01 3.0226644633983937e+00 -1.1173454792728748e+00 0 0 0
289 1 1 -7.6141208467182225e-02 2.8378514743851428e+00 -1.1753174292704265e+00 0 0 0
128 1 1 5.4387239562439915e-01 3.7917762732351359e+00 -8.7730368008995918e-01 0 0 0
318 1 1 6.8222933961081367e-01 3.9101768577346734e+00 -9.5213834827604438e-01 0 0 0
435 1 1 1.0877952970696170e+00 3.0726786042102701e+00 -2.6468672105350248e+00 0 0 0
437 1 1 1.2664847190258903e+00 3.5566505137785023e+00 -2.1158031308211074e+00 0 0 0
111 1 1 3.1924660685394937e+00 2.1728954420904163e+00 -1.2256471474080997e+00 0 0 0
470 1 1 3.0852006716663074e+00 2.0557940196346651e+00 -1.1856862684583227e+00 0 0 0
408 1 1 -1.9812030385556489e+00 3.6454562412975524e+00 -7.6342779220167134e-01 0 0 0
221 1 1 -1.0395814080589876e+00 3.6522066142869489e+00 -2.1972592810491802e+00 0 0 0
228 1 1 -1.3239057245514123e+00 -5.3333947504789041e+00 5.5052869457272924e-01 0 0 0
291 1 1 2.7149248065343318e-01 -3.5244960868321216e+00 -1.2896770076250899e+00 0 0 0
486 1 1 -6.1482669105684795e-01 -4.0955015438761473e+00 1.3229715448548460e-01 0 0 0
185 1 1 -5.9089589809407476e-02 -4.5226211477320701e+00 6.0339358885856575e-01 0 0 0
283 1 1 -2.6746125653372715e-01 -4.3865713042195607e+00 -2.3727567209639977e+00 0 0 0
343 1 1 -6.7399369850947610e-01 -3.8522371873618675e+00 -2.3310995245205199e+00 0 0 0
348 1 1 -1.6022472078979579e+00 -2.7864659899799560e+00 -3.9774256722051077e-01 0 0 0
229 1 1 -1.5706220558012951e+00 -2.9302786419683011e+00 -2.7614043177847958e-01 0 0 0
120 1 1 -2.6983876494786507e+00 -3.4351087921771257e+00 -4.9280989848409645e-01 0 0 0
333 1 1 -1.1247391964951297e+00 -3.5864838863239523e+00 -6.7937732779747151e-01 0 0 0
257 1 1 -7.6414004889708176e-01 -3.7738432090161873e+00 -7.4552984515294496e-01 0 0 0
498 1 1 5.7344584510328001e-01 -3.3402273509513707e+00 -2.3716786999185020e+00 0 0 0
287 1 1 1.1783417560149734e+00 -3.8821139087836998e+00 -1.9057178602147051e+00 0 0 0
407 1 1 4.7491797423000004e-01 -3.9717357704207430e+00 -3.8091629569874697e-01 0 0 0
439 1 1 -5.9475310834028972e-01 -3.0528726702285502e+00 7.2518380112807992e-02 0 0 0
187 1 1 -4.5219463249988046e-01 -3.0834697325567166e+00 -7.1457311996421122e-02 0 0 0
392 1 1 7.9838288671636848e-01 -3.6979965326490238e+00 -4.6224230375499659e-01 0 0 0
249 1 1 1.4227247545616748e+00 -2.7643232567904974e+00 -1.5451398013983850e+00 0 0 0
374 1 1 1.1845548637100511e+00 -2.6414950774945711e+00 -1.6930241178867675e+00 0 0 0
122 1 1 1.6468064545442398e+00 -1.9667652441422152e+00 -2.5409129138212281e+00 0 0 0
255 1 1 -2.4240192680021631e+00 -2.3288033017350487e+00 -5.7703423240693963e-01 0 0 0
27 1 2 -2.5539819627437241e+00 -2.4233455733258751e+00 -7.4127956055651811e-01 0 0 0
220 1 1 -3.2410753754969202e+00 -2.3949392776678384e+00 6.6619165698755714e-02 0 0 0
191 1 1 -1.5871885747272390e+00 -1.5869398251605615e+00 -2.8744347852277080e-01 0 0 0
489 1 1 -1.6989381116372304e+00 -1.5828773129193285e+00 -4.4580163165949771e-01 0 0 0
164 1 1 2.3794872317566898e-01 -1.8364866038800141e+00 -2.7872341845376303e-01 0 0 0
119 1 1 -7.1799070914080243e-01 -2.2264703995062383e+00 -7.7716351441984155e-01 0 0 0
280 1 1 -6.7505699756717996e-01 -2.1994783920347860e+00 -7.2581789131801355e-01 0 0 0
242 1 1 7.8230622315467024e-01 -1.7115374881542065e+00 -5.3866776652966797e-01 0 0 0
315 1 1 8.1156935508159833e-01 -2.6723719886291342e+00 -6.9965119454570357e-01 0 0 0
412 1 1 5.7309079666213703e-01 -2.7670925480539430e+00 -5.5410483431136159e-01 0 0 0
258 1 1 1.1381513305320774e+00 -6.2154287334826175e-01 -1.3519407136576149e+00 0 0 0
239 1 1 1.1449649533581472e+00 -5.7158303446490566e-01 -1.3150804903555837e+00 0 0 0
352 1 1 1.7227905452635019e+00 -1.0909956792798803e+00 -6.5839902798764904e-01 0 0 0
360 1 1 1.7906738786321272e+00 -1.1367108863244317e+00 -6.2636098686010222e-01 0 0 0
493 1 1 2.6343802751791805e+00 -1.6356617815686745e+00 -2.5454224177798690e-01 0 0 0
430 1 1 3.2255782186784367e+00 -8.0992266502775612e-01 -9.8079236192150598e-01 0 0 0
60 1 1 -3.1448971952846216e+00 -9.7477788292484757e-01 6.9319349761548632e-01 0 0 0
377 1 1 -3.3778829215177364e+00 2.1466719245508720e-01 -9.8644416897057596e-01 0 0 0
72 1 1 -3.2629076638029795e+00 -5.2820293244728078e-01 -8.5008665342004497e-01 0 0 0
28 1 2 -2.7071230503799688e+00 -1.3299200524375689e+00 -2.2049675723059003e-01 0 0 0
175 1 1 -2.7376779845808374e+00 -1.4095237232108209e+00 -2.0908448639909083e-01 0 0 0
132 1 1 -1.6133269893207012e+00 -4.5849503259624741e-01 -4.1169343882858822e-01 0 0 0
300 1 1 -1.4509616803421153e+00 -5.1512810057466940e-01 -5.0425022828015142e-01 0 0 0
99 1 1 -6.8683128102774726e-01 -2.1624105513025571e-01 -1.1684532917315249e+00 0 0 0
313 1 1 -6.8581322021064250e-01 -1.1684363898024772e+00 -1.7235774543292523e-01 0 0 0
138 1 1 -6.2668962251364413e-01 -1.1170398959349177e+00 -4.5577200103106824e-01 0 0 0
488 1 1 3.1114043271967978e-01 -3.3887828794065367e-01 -6.3320561654287966e-01 0 0 0
98 1 1 2.4817815917472719e-01 -4.4029592680411556e-01 -6.7468951275212419e-01 0 0 0
465 1 1 9.7021063587322731e-01 -8.2601714427208428e-01 4.3487117965087460e-02 0 0 0
48 1 2 1.0468650107909319e+00 -7.4051650810389680e-01 3.3786317743031771e-03 0 0 0
56 1 1 1.6113672681771454e+00 8.6442278804100894e-03 -5.4794698789244689e-01 0 0 0
178 1 1 1.6100537629409679e+00 -1.1568409916786909e-02 -6.1818301065420544e-01 0 0 0
168 1 1 2.5738539664694864e+00 -5.2542702286944565e-01 -1.8808846663093107e-01 0 0 0
195 1 1 2.4606671925165973e+00 -1.9095621150617914e-01 -1.2748430571686178e+00 0 0 0
44 1 2 3.0037202758790249e+00 -6.4434973366690895e-01 -1.0961004253923787e+00 0 0 0
161 1 1 2.7720828301548464e+00 5.3735554874740443e-01 -3.8012385167774654e-01 0 0 0
37 1 2 2.7824839122938441e+00 5.4834788767872888e-01 -3.9851474212761245e-01 0 0 0
462 1 1 2.7682931700966424e+00 -1.8001498035339683e+00 -1.1805609807485280e+00 0 0 0
13 1 2 -2.2582879431633049e+00 1.9456443540908241e-01 -7.9461176333993677e-01 0 0 0
176 1 1 -4.0037345427819373e+00 1.3172382606335493e+00 -3.2305837631028111e-01 0 0 0
271 1 1 -3.8206762108553867e+00 3.2104303086298303e-01 3.6548671863538479e-01 0 0 0
290 1 1 -3.7363330055918502e+00 2.9108734662987890e-01 -2.2100898160449796e+00 0 0 0
448 1 1 -2.1642165633756898e+00 3.0478948743656953e-01 -7.2335495206889755e-01 0 0 0
92 1 1 -2.7288022836834722e+00 -7.6140525541340237e-02 1.7416045335304686e-01 0 0 0
2 1 2 -1.2487520874000575e+00 7.6396852129312420e-01 -5.2867536842580432e-01 0 0 0
328 1 1 -1.1596592485210209e+00 8.3462475632342004e-01 -4.8454914101660362e-01 0 0 0
46 1 2 -2.5338181384856906e-01 1.3681666340158740e+00 -9.4908392881940515e-02 0 0 0
235 1 1 -2.1846986211896000e-01 1.2745956979290789e+00 -5.8800267123816204e-02 0 0 0
177 1 1 -5.9393558381333056e-01 -1.1412767277498398e-01 -1.1802368422293164e+00 0 0 0
260 1 1 -5.1262627715027198e-01 -3.3321623971723793e-02 -1.1061281484090089e-01 0 0 0
466 1 1 -6.4321230753693903e-01 6.8952068382449383e-02 -1.2026117204812024e-01 0 0 0
52 1 1 -3.1456644084062113e-01 9.7784548672747218e-01 -1.0977239775311889e+00 0 0 0
358 1 1 -2.4225685347794135e-01 9.7099132057339776e-01 -1.2412831651382785e+00 0 0 0
464 1 1 7.4502693374239570e-01 3.0018640971276445e-01 9.2931070423651660e-02 0 0 0
397 1 1 8.0962613675964268e-01 2.9198064426853676e-01 4.3888632915634697e-02 0 0 0
246 1 1 6.9827421888712571e-01 6.0047086170786224e-01 -9.2612699198370751e-01 0 0 0
171 1 1 6.7677499614325698e-01 7.9782230827843059e-01 -8.4802215310614792e-01 0 0 0
95 1 1 2.3965445486183001e+00 1.0235729947832972e+00 -1.3913941341019311e+00 0 0 0
440 1 1 2.1565750263971428e+00 8.4170582703481311e-01 -1.2457396186331102e+00 0 0 0
286 1 1 1.5827686275891275e+00 9.8994366003585088e-01 -2.5717501978070506e-01 0 0 0
269 1 1 1.5815323836260911e+00 9.6554976244086810e-01 -1.7206315077201284e-01 0 0 0
344 1 1 2.4749927517945709e+00 1.5040828702007507e+00 -3.2970299711435863e-01 0 0 0
432 1 1 4.1802123806184914e+00 1.9884336884343918e+00 -2.1260568906906446e-01 0 0 0
53 1 1 4.3597208899667601e+00 8.5980850278155130e-01 -6.7517847536303563e-02 0 0 0
184 1 1 3.6184166725755631e+00 2.8805522137441542e+00 -1.8550806443498342e+00 0 0 0
113 1 1 -4.1123396190862938e+00 2.1015570329859901e+00 -1.1697734157161717e+00 0 0 0
416 1 1 -3.1392949055791015e+00 2.6276253274501280e+00 -2.1257508412223616e+00 0 0 0
484 1 1 -3.0016043291135976e+00 1.5977345073595521e+00 5.9907732123440846e-02 0 0 0
398 1 1 -2.0926204019049810e+00 1.5074251483767189e+00 -7.2482557960887728e-01 0 0 0
69 1 1 -2.0666591331595914e+00 1.5588287280436786e+00 -7.8360226115702325e-01 0 0 0
251 1 1 -1.0280998795093592e+00 1.7731265686324895e+00 -1.0653575790048948e+00 0 0 0
202 1 1 -9.3673293319745377e-01 1.8735744649243478e+00 -1.1435821024030259e+00 0 0 0
379 1 1 -1.3143353591430409e+00 1.8316384615100598e+00 -9.7359479396541909e-02 0 0 0
338 1 1 -1.2456018773646524e+00 1.9146117211035751e+00 -5.0904236840456821e-02 0 0 0
446 1 1 3.2984256882523616e-01 1.9276552585956286e+00 -9.8770036218070456e-01 0 0 0
262 1 1 2.7358989290497948e-01 1.8645846000583659e+00 -1.0343446753927439e+00 0 0 0
1 1 1 -2.8047558840394360e-01 2.3243298982835841e+00 -3.0794632662387350e-01 0 0 0
425 1 1 -3.3118706376394252e-01 2.3058292027948188e+00 -1.7274923951000168e-01 0 0 0
218 1 1 7.4328143064756746e-01 1.7310246805707619e+00 2.0297578636906624e-01 0 0 0
136 1 1 1.3318342748917988e+00 2.0931304403146789e+00 -6.9008455795131141e-01 0 0 0
105 1 1 1.3284115900352536e+00 1.8542625959870449e+00 -7.2674857369746160e-01 0 0 0
47 1 2 3.8586017830114390e+00 1.3717215050742824e+00 -8.6161432320782760e-01 0 0 0
87 1 1 2.4384805894260864e+00 2.6789859629364510e+00 -3.3712129394904400e-01 0 0 0
188 1 1 4.4932694673024089e+00 2.3969239163439782e+00 -1.2245690491192174e+00 0 0 0
51 1 2 3.5959064693170713e+00 2.9031859298842488e+00 -5.7910303880047032e-01 0 0 0
67 1 1 -2.9913237644056605e+00 1.0332028490172023e+00 -5.5403960928326257e-01 0 0 0
82 1 1 -2.9074805620202890e+00 1.7722535457885698e+00 2.3404451164352755e-01 0 0 0
417 1 1 -2.5835110535002332e+00 1.8831320645179208e+00 9.5399996192017911e-01 0 0 0
404 1 1 -2.0550538123535134e+00 2.6535705827333591e+00 -1.0108621083079923e+00 0 0 0
281 1 1 -1.9814058427607437e+00 2.5295847015484969e+00 -9.7385003865825226e-01 0 0 0
91 1 1 -2.0530625754160789e+00 2.5367333265393048e+00 1.8157847434218355e-01 0 0 0
142 1 1 -2.1546070953060532e+00 2.4278386186828498e+00 7.1671637575411784e-02 0 0 0
434 1 1 -7.0628960367856497e-01 3.9541173789404707e+00 -9.0820927618504843e-01 0 0 0
26 1 2 -1.0205183799323414e+00 2.9214655784874428e+00 -5.7197087519642975e-01 0 0 0
59 1 1 -1.1616393685594786e+00 2.8861056255143294e+00 -5.7567735711845769e-01 0 0 0
150 1 1 -1.5952772219198474e+00 3.5631036201275501e+00 3.1641932240130166e-01 0 0 0
403 1 1 6.5605328086689374e-01 2.8567792463374992e+00 -5.0469438447737303e-01 0 0 0
366 1 1 5.4613793917203235e-01 2.7917636094213565e+00 -4.0910243528483825e-01 0 0 0
212 1 1 -2.8668173674265085e-01 3.3825810624206278e+00 -1.1790670162089463e-01 0 0 0
406 1 1 1.7233056942056331e+00 4.0784381399785197e+00 -6.2844821669569162e-01 0 0 0
346 1 1 1.5766108950529059e+00 3.2709094922759978e+00 -8.3142948290679541e-01 0 0 0
270 1 1 -2.9648292285957281e+00 3.3185416631282543e+00 2.6596341502629375e-02 0 0 0
247 1 1 -2.1238151162924379e+00 3.8957072449775456e+00 3.6083690660158219e-01 0 0 0
34 1 1 -8.0225363455926416e-02 3.6361781570715301e+00 -8.6695173948745416e-02 0 0 0
301 1 1 1.0341184724279315e+00 3.7899264442272891e+00 2.0934272628779307e-01 0 0 0
180 1 1 2.4980690124640543e+00 2.7972703540048123e+00 -4.6304039262595692e-01 0 0 0
383 1 1 -1.9156153886411462e+00 -4.1675392982547175e+00 -3.6890100411817334e-01 0 0 0
372 1 1 -1.2043830072739670e+00 -4.7753113078006431e+00 1.3294115915867601e+00 0 0 0
285 1 1 -1.4536581833275288e+00 -3.9059115911536746e+00 1.6829605135778178e+00 0 0 0
226 1 1 1.0538291901584236e+00 -3.9770692764833320e+00 6.5167463498691836e-01 0 0 0
423 1 1 2.6856127670279095e+00 -3.4637897619729117e+00 1.5873755766171393e+00 0 0 0
304 1 1 2.1041467613724856e+00 -3.6679570834688726e+00 1.2929471364023108e+00 0 0 0
380 1 1 -2.4389486942640493e+00 -3.2534652258051597e+00 4.9386328070024027e-01 0 0 0
424 1 1 -1.3770422065935650e+00 -3.1698743469934589e+00 7.5768800610617415e-01 0 0 0
330 1 1 -1.3167285128105202e+00 -3.5914770144339885e+00 6.2781375224895786e-01 0 0 0
339 1 1 4.8925628780020053e-01 -2.8758783306185296e+00 4.8216800013387207e-01 0 0 0
426 1 1 4.3654087028724375e-01 -3.1299434499668792e+00 6.3591132727451460e-01 0 0 0
131 1 1 1.5114487167734048e+00 -3.1097266577903286e+00 2.5884750998129417e-02 0 0 0
334 1 1 1.7445335670384898e+00 -3.2129153795040959e+00 2.1328970677139161e-01 0 0 0
273 1 1 1.7674841500252239e+00 -2.0959723022673256e+00 -7.5651459857875003e-01 0 0 0
115 1 1 2.3731849435795973e+00 -2.5084570563883033e+00 6.9480827552197000e-01 0 0 0
135 1 1 3.4701090580701757e+00 -2.8084165846172762e+00 1.9106852204425566e+00 0 0 0
201 1 1 -2.5151115920263809e+00 -1.3821351010254272e+00 2.4241234816862667e+00 0 0 0
298 1 1 -2.7835654281408915e+00 -6.3934375223523066e-01 3.1944442869935976e+00 0 0 0
151 1 1 -2.0900594148850145e+00 -2.1206082250066496e+00 5.1417472636372519e-01 0 0 0
169 1 1 -2.1392849844050525e+00 -2.2459535732296176e+00 5.1546330113547911e-01 0 0 0
104 1 1 -1.0469492795249988e+00 -2.0686435856079517e+00 3.4677938425522986e-01 0 0 0
391 1 1 -9.6589673813732058e-01 -2.0573619209921099e+00 3.4696066142656229e-01 0 0 0
272 1 1 4.8103057679633144e-03 -1.7503137857548454e+00 6.9480763290875391e-01 0 0 0
337 1 1 -1.3206001824117278e-01 -1.7885518806468588e+00 7.1707332627695031e-01 0 0 0
166 1 1 1.1004261851575332e+00 -2.0410434111486127e+00 4.3177632395414051e-01 0 0 0
292 1 1 1.1394096306265165e+00 -1.9483873634599376e+00 3.5850781708772045e-01 0 0 0
112 1 1 1.8496948084588554e+00 -1.3862701437520408e+00 5.3777508535762442e-01 0 0 0
362 1 1 1.9866695717577358e+00 -1.4117372191627577e+00 5.2567901447466692e-01 0 0 0
159 1 1 2.6005990586414338e+00 -1.5466842635077829e+00 1.4356624788547196e+00 0 0 0
77 1 1 3.3261556217801727e+00 -2.1582955839350375e+00 4.9175948010202053e-01 0 0 0
302 1 1 3.5360906152065024e+00 -1.4626557870473628e-01 -2.6413360506376080e-03 0 0 0
357 1 1 -4.3185507352633152e+00 -6.7407609111725397e-01 1.4859330460796491e-01 0 0 0
468 1 1 -3.8204445294911444e+00 -1.5874465329889784e+00 -3.7055211158987000e-01 0 0 0
15 1 2 -3.2340186199224572e+00 -1.0169070444374022e+00 7.2929157171873515e-01 0 0 0
429 1 1 -2.7950037899055733e+00 4.9680395587561077e-01 1.9588313983220709e+00 0 0 0
83 1 1 -2.1166719806289795e+00 -9.3499725859532179e-01 4.6008113250773452e-01 0 0 0
382 1 1 -1.9858398147160219e+00 -9.1899517640932515e-01 3.9359683082584640e-01 0 0 0
356 1 1 -1.9360659237853239e+00 -1.2725546806638295e+00 1.5081141167574417e+00 0 0 0
181 1 1 6.8075687757859452e-02 -5.0195721116668424e-01 4.6195941012913583e-01 0 0 0
10 1 2 5.2133296637078740e-02 -5.8504208458945972e-01 4.2981264386214968e-01 0 0 0
447 1 1 -9.5739990972694122e-01 -1.0385882093772016e+00 8.0967436634740364e-01 0 0 0
126 1 1 -5.7993087483627981e-01 4.4291469883494049e-02 1.0427051567667169e+00 0 0 0
196 1 1 7.2284493829642393e-01 1.4548640650437933e-02 1.2017679692811822e+00 0 0 0
487 1 1 7.8965928002975283e-01 -7.3071399710418206e-02 1.2584950520521987e+00 0 0 0
259 1 1 1.6235455155494127e+00 -1.7165099884375531e-01 6.0637685737386071e-01 0 0 0
101 1 1 2.4672511694576671e+00 -5.0158624427891418e-01 -1.6036762068537602e-01 0 0 0
323 1 1 1.6145967669731975e+00 -8.1051177213845138e-02 5.2368698303745886e-01 0 0 0
134 1 1 2.6432232727489464e+00 -3.9655504895256816e-01 8.8962273263624170e-01 0 0 0
394 1 1 2.6675794520423346e+00 -2.6099621279468416e-01 8.5115008650191293e-01 0 0 0
49 1 2 3.3559335451946848e+00 -1.1489710004392879e+00 3.7627033339040622e-01 0 0 0
84 1 1 3.4413780605020654e+00 -1.0957798857059486e+00 7.6354204153640948e-01 0 0 0
86 1 1 3.6281647210722014e+00 8.4449910919081578e-02 4.4638458910819234e-01 0 0 0
205 1 1 -4.3012375363231543e+00 9.0922745287949824e-01 -1.3730483841546506e+00 0 0 0
254 1 1 -4.3360414387010229e+00 -1.3759375821233080e-01 -7.8879397451581856e-01 0 0 0
400 1 1 -2.9649092819110305e+00 6.8514906636078410e-01 9.7440162670934638e-01 0 0 0
63 1 1 -2.9435594328800927e+00 7.7052661702022485e-01 9.0018408678409279e-01 0 0 0
170 1 1 -2.7297352422501127e+00 1.4721151828816967e-01 1.2947633230682051e-01 0 0 0
78 1 1 -1.5685915073445742e+00 3.6668006762544267e-02 5.0089688804468135e-01 0 0 0
322 1 1 -1.7616466310515202e+00 1.3045050282206352e-01 4.7559456013078155e-01 0 0 0
121 1 1 -1.0490121251584448e+00 9.0036721078205895e-01 6.0046804881579430e-01 0 0 0
299 1 1 -9.9541303198803743e-01 8.7988036847861650e-01 5.8827591276235180e-01 0 0 0
145 1 1 -5.7480707676688103e-01 6.7134833334446725e-02 1.0437006288240818e+00 0 0 0
414 1 1 9.4908626049988856e-02 8.6815502790193422e-01 9.4788963639401180e-01 0 0 0
241 1 1 9.8137998408747137e-02 9.1986495747786778e-01 7.9528114267493955e-01 0 0 0
154 1 1 2.3316461169307066e+00 8.3630242105293795e-01 5.7605285877500279e-01 0 0 0
321 1 1 2.2763448989528556e+00 6.9691004458766248e-01 5.6090780173036625e-01 0 0 0
405 1 1 1.1837784302133187e+00 9.2179820687051450e-01 8.6848696512789869e-01 0 0 0
472 1 1 1.3417486486337449e+00 9.9483569464622523e-01 9.5542321304247457e-01 0 0 0
276 1 1 3.3947444868118457e+00 1.1482517007821482e+00 2.8703773591120196e-01 0 0 0
190 1 1 -3.7818171210053770e+00 7.4183647000893166e-02 1.4162296626415294e+00 0 0 0
123 1 1 -3.7415515789517539e+00 1.4294162513657043e+00 1.3354589022458119e+00 0 0 0
11 1 2 -2.0897117484132712e+00 9.8482503508553654e-01 1.7285313906969696e-01 0 0 0
427 1 1 -2.0327708801657542e+00 1.0809431687056430e+00 2.3520504892238669e-01 0 0 0
149 1 1 -1.5016390035558129e+00 2.0895894627530920e+00 1.0849521442268140e+00 0 0 0
256 1 1 -4.7775169289541941e-01 1.8282349790851213e+00 9.1464134288850918e-01 0 0 0
43 1 2 -5.1498039506984039e-01 1.8303341863276001e+00 8.5641571814582529e-01 0 0 0
108 1 1 -1.5605951392342541e+00 1.8455053771461043e+00 1.1696366403110243e+00 0 0 0
23 1 2 7.6765350852358449e-01 1.6646661854862326e+00 1.5961303866621107e-01 0 0 0
58 1 1 6.0780077542369315e-01 1.8769311527955019e+00 1.1927862228244415e+00 0 0 0
31 1 2 4.9667454203564748e-01 1.7868786514620367e+00 1.2349141571474893e+00 0 0 0
41 1 2 1.6314359075451712e+00 2.9430013816925382e+00 3.8826151590712465e-01 0 0 0
162 1 1 1.8205522776546277e+00 1.7930626903319722e+00 3.7787326747387689e-01 0 0 0
451 1 1 3.4285763602099317e+00 1.1748285718884006e+00 4.6861461805083288e-01 0 0 0
213 1 1 3.5474292645377066e+00 1.6971821188346214e+00 1.3621822012757256e+00 0 0 0
85 1 1 2.8031047529538560e+00 2.1078275120279897e+00 5.1624742046915761e-01 0 0 0
206 1 1 -2.7658422646139469e+00 1.9580163220607800e+00 1.3395055428084599e+00 0 0 0
306 1 1 -3.4806124832012770e+00 2.3867609912714167e+00 7.5368025745119271e-01 0 0 0
243 1 1 -2.1853007037952246e+00 2.9251091891912400e+00 1.1170112252680087e+00 0 0 0